LAMMPS (23 Jun 2022 - Update 1)
OMP_NUM_THREADS environment is not set. Defaulting to 1 thread. (src/comm.cpp:98)
  using 1 OpenMP thread(s) per MPI task
Loaded 1 plugins from /opt/deepmd-kit-2.2.1/lib/deepmd_lmp
# this input script is for simulating a 3d LiCl melt at 900K using LAMMPS.

units           metal
boundary        p p p
atom_style      atomic

read_data	licl.data
Reading data file ...
  orthogonal box = (0 0 0) to (11.858 11.858 11.858)
  1 by 1 by 1 MPI processor grid
  reading atoms ...
  64 atoms
  read_data CPU = 0.016 seconds
mass 		1 6.94
mass		2 35.45

pair_style	deepmd licl-compress.pb
Summary of lammps deepmd module ...
  >>> Info of deepmd-kit:
  installed to:       /opt/deepmd-kit-2.2.1
  source:             v2.2.1
  source branch:       HEAD
  source commit:      3ac8c4c7
  source commit at:   2023-03-16 12:33:24 +0800
  surpport model ver.:1.1 
  build variant:      cuda
  build with tf inc:  /opt/deepmd-kit-2.2.1/include;/opt/deepmd-kit-2.2.1/include
  build with tf lib:  /opt/deepmd-kit-2.2.1/lib/libtensorflow_cc.so
  set tf intra_op_parallelism_threads: 0
  set tf inter_op_parallelism_threads: 0
  >>> Info of lammps module:
  use deepmd-kit at:  /opt/deepmd-kit-2.2.1pair_coeff  	* *

velocity        all create 900 23456789

fix             1 all nvt temp 900 900 0.5
timestep        0.001


# rdf calculation
compute 	 rdf all rdf 100 1 1 1 2 2 2
fix 		 2 all ave/time 100 1 100 c_rdf[*] file licl.rdf mode vector

thermo_style    custom step temp pe ke etotal press lx ly lz vol
thermo          100
dump		1 all custom 100 licl.dump id type x y z

run             100000

CITE-CITE-CITE-CITE-CITE-CITE-CITE-CITE-CITE-CITE-CITE-CITE-CITE

Your simulation uses code contributions which should be cited:

- USER-DEEPMD package:

@article{Wang_ComputPhysCommun_2018_v228_p178,
  author = {Wang, Han and Zhang, Linfeng and Han, Jiequn and E, Weinan},
  doi = {10.1016/j.cpc.2018.03.016},
  url = {https://doi.org/10.1016/j.cpc.2018.03.016},
  year = 2018,
  month = {jul},
  publisher = {Elsevier {BV}},
  volume = 228,
  journal = {Comput. Phys. Commun.},
  title = {{DeePMD-kit: A deep learning package for many-body potential energy representation and molecular dynamics}},
  pages = {178--184}
}

CITE-CITE-CITE-CITE-CITE-CITE-CITE-CITE-CITE-CITE-CITE-CITE-CITE

Generated 0 of 1 mixed pair_coeff terms from geometric mixing rule
Neighbor list info ...
  update every 1 steps, delay 10 steps, check yes
  max neighbors/atom: 2000, page size: 100000
  master list distance cutoff = 9
  ghost atom cutoff = 9
  binsize = 4.5, bins = 3 3 3
  2 neighbor lists, perpetual/occasional/extra = 1 1 0
  (1) pair deepmd, perpetual
      attributes: full, newton on
      pair build: full/bin/atomonly
      stencil: full/bin/3d
      bin: standard
  (2) compute rdf, occasional, half/full from (1)
      attributes: half, newton on
      pair build: halffull/newton
      stencil: none
      bin: none
Per MPI rank memory allocation (min/avg/max) = 4.977 | 4.977 | 4.977 Mbytes
   Step          Temp          PotEng         KinEng         TotEng         Press            Lx             Ly             Lz           Volume    
         0   900           -19445.396      7.3290502     -19438.067      35597.531      11.858         11.858         11.858         1667.379     
       100   1219.0804     -19448.168      9.9274459     -19438.241      7138.2161      11.858         11.858         11.858         1667.379     
       200   1378.8245     -19449.944      11.228305     -19438.716     -1474.0315      11.858         11.858         11.858         1667.379     
       300   1165.5138     -19448.995      9.4912322     -19439.504     -7136.8997      11.858         11.858         11.858         1667.379     
       400   1120.9027     -19449.317      9.127947      -19440.189     -4356.8899      11.858         11.858         11.858         1667.379     
       500   1216.5543     -19450.655      9.9068747     -19440.748     -4039.0036      11.858         11.858         11.858         1667.379     
       600   1042.1403     -19449.665      8.4865538     -19441.178     -5365.7831      11.858         11.858         11.858         1667.379     
       700   1031.3221     -19450.002      8.3984571     -19441.604     -7134.5385      11.858         11.858         11.858         1667.379     
       800   1180.6819     -19451.583      9.6147524     -19441.968     -6229.9956      11.858         11.858         11.858         1667.379     
       900   1076.1499     -19451.172      8.7635077     -19442.408      567.75225      11.858         11.858         11.858         1667.379     
      1000   965.51806     -19450.71       7.8625893     -19442.848     -2930.1121      11.858         11.858         11.858         1667.379     
      1100   967.61943     -19451.123      7.8797015     -19443.243     -6415.8177      11.858         11.858         11.858         1667.379     
      1200   862.15533     -19450.635      7.0208664     -19443.615     -5417.3107      11.858         11.858         11.858         1667.379     
      1300   906.58175     -19451.348      7.3826479     -19443.966      568.03214      11.858         11.858         11.858         1667.379     
      1400   823.97281     -19450.997      6.7099312     -19444.287     -9149.4739      11.858         11.858         11.858         1667.379     
      1500   839.10293     -19451.386      6.8331417     -19444.553     -3222.6341      11.858         11.858         11.858         1667.379     
      1600   949.53704     -19452.493      7.7324496     -19444.76      -8258.8611      11.858         11.858         11.858         1667.379     
      1700   815.13886     -19451.581      6.6379929     -19444.943     -5622.0637      11.858         11.858         11.858         1667.379     
      1800   812.58626     -19451.676      6.6172061     -19445.059     -4591.2462      11.858         11.858         11.858         1667.379     
      1900   879.55227     -19452.29       7.1625364     -19445.128     -5445.429       11.858         11.858         11.858         1667.379     
      2000   762.64847     -19451.356      6.2105433     -19445.146     -7424.0397      11.858         11.858         11.858         1667.379     
      2100   699.62941     -19450.795      5.6973545     -19445.098     -3201.2855      11.858         11.858         11.858         1667.379     
      2200   798.12841     -19451.468      6.4994703     -19444.968     -4636.6951      11.858         11.858         11.858         1667.379     
      2300   1006.7811     -19452.971      8.1986102     -19444.773     -6095.6807      11.858         11.858         11.858         1667.379     
      2400   873.88318     -19451.681      7.1163708     -19444.565      981.55014      11.858         11.858         11.858         1667.379     
      2500   888.90851     -19451.577      7.2387279     -19444.338     -2025.2868      11.858         11.858         11.858         1667.379     
      2600   861.88291     -19451.14       7.0186479     -19444.122     -2036.3794      11.858         11.858         11.858         1667.379     
      2700   878.20078     -19451.023      7.1515307     -19443.871     -3223.945       11.858         11.858         11.858         1667.379     
      2800   872.04322     -19450.722      7.1013873     -19443.62      -1787.6376      11.858         11.858         11.858         1667.379     
      2900   891.65223     -19450.626      7.2610711     -19443.365     -5063.0996      11.858         11.858         11.858         1667.379     
      3000   1044.6592     -19451.619      8.5070663     -19443.112     -4754.1063      11.858         11.858         11.858         1667.379     
      3100   914.50635     -19450.35       7.4471811     -19442.903      2223.4654      11.858         11.858         11.858         1667.379     
      3200   1039.8622     -19451.228      8.4680025     -19442.76       72.658059      11.858         11.858         11.858         1667.379     
      3300   1099.8835     -19451.638      8.9567793     -19442.681     -3970.8345      11.858         11.858         11.858         1667.379     
      3400   1051.5572     -19451.26       8.5632396     -19442.697     -2811.3797      11.858         11.858         11.858         1667.379     
      3500   955.50465     -19450.571      7.7810462     -19442.79      -5230.1784      11.858         11.858         11.858         1667.379     
      3600   926.57846     -19450.491      7.545489      -19442.945     -9481.0801      11.858         11.858         11.858         1667.379     
      3700   801.66255     -19449.681      6.5282501     -19443.153     -6496.7644      11.858         11.858         11.858         1667.379     
      3800   960.67716     -19451.218      7.823168      -19443.394     -4857.2105      11.858         11.858         11.858         1667.379     
      3900   873.67209     -19450.84       7.1146518     -19443.725     -4137.752       11.858         11.858         11.858         1667.379     
      4000   986.58118     -19452.165      8.0341145     -19444.13      -1508.078       11.858         11.858         11.858         1667.379     
      4100   936.38253     -19452.224      7.6253273     -19444.598     -3615.3274      11.858         11.858         11.858         1667.379     
      4200   754.95854     -19451.208      6.1479212     -19445.06      -5006.162       11.858         11.858         11.858         1667.379     
      4300   711.44936     -19451.16       5.793609      -19445.366     -6590.0225      11.858         11.858         11.858         1667.379     
      4400   738.80585     -19451.568      6.0163835     -19445.552     -11520.213      11.858         11.858         11.858         1667.379     
      4500   670.38302     -19451.083      5.4591898     -19445.624     -8042.8188      11.858         11.858         11.858         1667.379     
      4600   799.62258     -19452.108      6.5116378     -19445.597     -2335.3669      11.858         11.858         11.858         1667.379     
      4700   856.93152     -19452.491      6.9783268     -19445.512     -3746.8895      11.858         11.858         11.858         1667.379     
      4800   894.65704     -19452.686      7.2855404     -19445.4       -2957.2307      11.858         11.858         11.858         1667.379     
      4900   817.94578     -19451.93       6.6608508     -19445.269     -850.76618      11.858         11.858         11.858         1667.379     
      5000   850.01899     -19452.031      6.9220354     -19445.109      881.72874      11.858         11.858         11.858         1667.379     
      5100   838.24443     -19451.787      6.8261506     -19444.96      -3804.1012      11.858         11.858         11.858         1667.379     
      5200   771.97572     -19451.123      6.2864987     -19444.837     -6900.9608      11.858         11.858         11.858         1667.379     
      5300   866.20901     -19451.73       7.0538771     -19444.676     -1819.0283      11.858         11.858         11.858         1667.379     
      5400   873.65641     -19451.631      7.1145241     -19444.517     -4266.2572      11.858         11.858         11.858         1667.379     
      5500   820.21825     -19451.058      6.6793564     -19444.378     -6907.0387      11.858         11.858         11.858         1667.379     
      5600   780.16156     -19450.567      6.3531592     -19444.214     -4691.9553      11.858         11.858         11.858         1667.379     
      5700   874.90845     -19451.142      7.12472       -19444.017     -11437.011      11.858         11.858         11.858         1667.379     
      5800   904.80703     -19451.202      7.3681957     -19443.834     -6499.1013      11.858         11.858         11.858         1667.379     
      5900   882.81558     -19450.87       7.1891108     -19443.681     -7522.3658      11.858         11.858         11.858         1667.379     
      6000   912.30202     -19450.987      7.4292304     -19443.558     -5727.038       11.858         11.858         11.858         1667.379     
      6100   866.89077     -19450.526      7.0594289     -19443.466     -3114.0813      11.858         11.858         11.858         1667.379     
      6200   913.91818     -19450.853      7.4423914     -19443.411     -848.13312      11.858         11.858         11.858         1667.379     
      6300   937.88603     -19451.014      7.6375709     -19443.377     -6452.7708      11.858         11.858         11.858         1667.379     
      6400   1024.0206     -19451.724      8.3389986     -19443.385     -10259.416      11.858         11.858         11.858         1667.379     
      6500   1011.898      -19451.685      8.2402789     -19443.444     -3644.7331      11.858         11.858         11.858         1667.379     
      6600   980.25001     -19451.544      7.9825573     -19443.562     -6652.4267      11.858         11.858         11.858         1667.379     
      6700   938.27014     -19451.337      7.6406989     -19443.697     -7868.8716      11.858         11.858         11.858         1667.379     
      6800   971.79063     -19451.762      7.9136693     -19443.849     -4489.8943      11.858         11.858         11.858         1667.379     
      6900   977.36756     -19451.952      7.9590844     -19443.992      500.68502      11.858         11.858         11.858         1667.379     
      7000   1062.2399     -19452.761      8.6502329     -19444.11      -5676.5291      11.858         11.858         11.858         1667.379     
      7100   916.89069     -19451.709      7.4665977     -19444.243     -3375.3936      11.858         11.858         11.858         1667.379     
      7200   871.21534     -19451.454      7.0946455     -19444.359     -7118.3328      11.858         11.858         11.858         1667.379     
      7300   781.16453     -19450.792      6.3613267     -19444.431     -8792.0528      11.858         11.858         11.858         1667.379     
      7400   842.768       -19451.307      6.8629877     -19444.444     -6142.2251      11.858         11.858         11.858         1667.379     
      7500   863.71548     -19451.457      7.0335712     -19444.423     -6143.0784      11.858         11.858         11.858         1667.379     
      7600   844.91106     -19451.239      6.8804396     -19444.358     -6191.4405      11.858         11.858         11.858         1667.379     
      7700   776.25326     -19450.593      6.3213324     -19444.271     -3676.5405      11.858         11.858         11.858         1667.379     
      7800   830.67157     -19450.933      6.7644818     -19444.168     -9272.2369      11.858         11.858         11.858         1667.379     
      7900   905.01718     -19451.41       7.3699071     -19444.041     -4313.9989      11.858         11.858         11.858         1667.379     
      8000   874.78145     -19451.048      7.1236857     -19443.924     -1691.2185      11.858         11.858         11.858         1667.379     
      8100   898.92047     -19451.162      7.3202592     -19443.842     -2409.659       11.858         11.858         11.858         1667.379     
      8200   927.99499     -19451.327      7.5570243     -19443.77      -2307.0014      11.858         11.858         11.858         1667.379     
      8300   905.39832     -19451.096      7.3730108     -19443.723     -4531.3222      11.858         11.858         11.858         1667.379     
      8400   898.2042      -19451.017      7.3144263     -19443.703     -2367.7365      11.858         11.858         11.858         1667.379     
      8500   880.5673      -19450.853      7.1708022     -19443.682      1911.3165      11.858         11.858         11.858         1667.379     
      8600   1047.8208     -19452.23       8.5328122     -19443.697     -1284.74        11.858         11.858         11.858         1667.379     
      8700   858.68577     -19450.718      6.9926124     -19443.726     -4175.4228      11.858         11.858         11.858         1667.379     
      8800   846.00521     -19450.643      6.8893496     -19443.753     -2658.6676      11.858         11.858         11.858         1667.379     
      8900   738.35483     -19449.799      6.0127107     -19443.787     -8331.3425      11.858         11.858         11.858         1667.379     
      9000   832.47754     -19450.586      6.7791886     -19443.807     -9772.0397      11.858         11.858         11.858         1667.379     
      9100   948.39533     -19451.545      7.7231522     -19443.822     -7232.3481      11.858         11.858         11.858         1667.379     
      9200   936.46668     -19451.48       7.6260126     -19443.854     -5839.3628      11.858         11.858         11.858         1667.379     
      9300   859.65838     -19450.884      7.0005327     -19443.883     -5736.8743      11.858         11.858         11.858         1667.379     
      9400   874.57338     -19451.03       7.1219913     -19443.908     -6385.6045      11.858         11.858         11.858         1667.379     
      9500   871.58765     -19451.025      7.0976774     -19443.927     -5883.2172      11.858         11.858         11.858         1667.379     
      9600   935.51658     -19451.565      7.6182755     -19443.947     -3847.2176      11.858         11.858         11.858         1667.379     
      9700   1008.6067     -19452.192      8.2134772     -19443.978     -3950.0658      11.858         11.858         11.858         1667.379     
      9800   931.65503     -19451.631      7.5868295     -19444.044     -311.92407      11.858         11.858         11.858         1667.379     
      9900   906.70971     -19451.523      7.38369       -19444.14      -345.41469      11.858         11.858         11.858         1667.379     
     10000   941.0635      -19451.932      7.6634463     -19444.268     -2931.4139      11.858         11.858         11.858         1667.379     
     10100   923.8297      -19451.996      7.5231047     -19444.473      3121.2576      11.858         11.858         11.858         1667.379     
     10200   852.42972     -19451.708      6.9416669     -19444.766     -1503.2397      11.858         11.858         11.858         1667.379     
     10300   927.48943     -19452.705      7.5529073     -19445.152     -3976.572       11.858         11.858         11.858         1667.379     
     10400   821.32456     -19452.235      6.6883655     -19445.547     -916.66397      11.858         11.858         11.858         1667.379     
     10500   826.75994     -19452.593      6.7326279     -19445.86       439.9369       11.858         11.858         11.858         1667.379     
     10600   698.1438      -19451.802      5.6852566     -19446.116     -4825.4264      11.858         11.858         11.858         1667.379     
     10700   715.23205     -19452.059      5.8244129     -19446.234     -5533.7318      11.858         11.858         11.858         1667.379     
     10800   679.51259     -19451.801      5.5335355     -19446.268     -3226.1761      11.858         11.858         11.858         1667.379     
     10900   773.93861     -19452.497      6.3024833     -19446.195     -5191.0144      11.858         11.858         11.858         1667.379     
     11000   783.84898     -19452.429      6.3831872     -19446.045     -5913.4174      11.858         11.858         11.858         1667.379     
     11100   773.41499     -19452.121      6.2982192     -19445.822     -4924.7523      11.858         11.858         11.858         1667.379     
     11200   836.8426      -19452.354      6.814735      -19445.539     -2282.6472      11.858         11.858         11.858         1667.379     
     11300   856.80147     -19452.183      6.9772678     -19445.205     -444.74973      11.858         11.858         11.858         1667.379     
     11400   819.11663     -19451.552      6.6703854     -19444.881     -4958.9109      11.858         11.858         11.858         1667.379     
     11500   746.26715     -19450.695      6.0771438     -19444.618     -3438.2066      11.858         11.858         11.858         1667.379     
     11600   869.74197     -19451.479      7.0826473     -19444.396     -6133.5178      11.858         11.858         11.858         1667.379     
     11700   929.3338      -19451.818      7.5679267     -19444.25      -1512.7593      11.858         11.858         11.858         1667.379     
     11800   947.63505     -19451.865      7.716961      -19444.148     -6245.7273      11.858         11.858         11.858         1667.379     
     11900   1102.8359     -19453.081      8.9808218     -19444.1       -4198.0929      11.858         11.858         11.858         1667.379     
     12000   868.43453     -19451.183      7.0720003     -19444.111     -3261.8977      11.858         11.858         11.858         1667.379     
     12100   865.36941     -19451.174      7.0470398     -19444.127     -648.03182      11.858         11.858         11.858         1667.379     
     12200   831.35772     -19450.895      6.7700694     -19444.125     -190.30679      11.858         11.858         11.858         1667.379     
     12300   832.554       -19450.895      6.7798112     -19444.115      4839.7249      11.858         11.858         11.858         1667.379     
     12400   857.98822     -19451.09       6.986932      -19444.103     -7802.8823      11.858         11.858         11.858         1667.379     
     12500   869.97366     -19451.176      7.0845341     -19444.091     -4364.5901      11.858         11.858         11.858         1667.379     
     12600   864.04286     -19451.078      7.0362373     -19444.042     -2516.8204      11.858         11.858         11.858         1667.379     
     12700   913.64166     -19451.406      7.4401395     -19443.966     -3126.4037      11.858         11.858         11.858         1667.379     
     12800   866.34845     -19450.938      7.0550125     -19443.883     -1908.8068      11.858         11.858         11.858         1667.379     
     12900   882.23059     -19450.954      7.184347      -19443.769     -256.2887       11.858         11.858         11.858         1667.379     
     13000   1021.5731     -19451.934      8.3190673     -19443.615     -8503.4046      11.858         11.858         11.858         1667.379     
     13100   971.65723     -19451.344      7.9125829     -19443.432     -4120.8641      11.858         11.858         11.858         1667.379     
     13200   927.44762     -19450.787      7.5525669     -19443.235     -4999.0976      11.858         11.858         11.858         1667.379     
     13300   985.60721     -19451.054      8.026183      -19443.028     -7292.6728      11.858         11.858         11.858         1667.379     
     13400   915.29339     -19450.298      7.4535902     -19442.844     -5081.6093      11.858         11.858         11.858         1667.379     
     13500   977.03        -19450.626      7.9563355     -19442.67      -3950.347       11.858         11.858         11.858         1667.379     
     13600   892.77846     -19449.76       7.2702424     -19442.49      -3523.7034      11.858         11.858         11.858         1667.379     
     13700   880.89432     -19449.438      7.1734652     -19442.264     -2718.9156      11.858         11.858         11.858         1667.379     
     13800   888.08833     -19449.317      7.2320488     -19442.085     -1821.8387      11.858         11.858         11.858         1667.379     
     13900   1058.221      -19450.545      8.6175053     -19441.928     -7574.6372      11.858         11.858         11.858         1667.379     
     14000   1027.391      -19450.19       8.3664448     -19441.824      1555.4312      11.858         11.858         11.858         1667.379     
     14100   1006.2102     -19449.998      8.1939614     -19441.804      2948.9151      11.858         11.858         11.858         1667.379     
     14200   874.54556     -19448.966      7.1217648     -19441.844      3697.7691      11.858         11.858         11.858         1667.379     
     14300   934.89927     -19449.552      7.6132485     -19441.939     -3188.7457      11.858         11.858         11.858         1667.379     
     14400   1014.3262     -19450.371      8.260053      -19442.111     -3340.693       11.858         11.858         11.858         1667.379     
     14500   1021.2995     -19450.758      8.3168394     -19442.441     -1955.2588      11.858         11.858         11.858         1667.379     
     14600   914.76905     -19450.329      7.4493203     -19442.88      -3001.322       11.858         11.858         11.858         1667.379     
     14700   991.98667     -19451.44       8.0781335     -19443.362     -5316.635       11.858         11.858         11.858         1667.379     
     14800   892.90298     -19451.048      7.2712564     -19443.777      3136.8211      11.858         11.858         11.858         1667.379     
     14900   825.54645     -19450.807      6.722746      -19444.084     -2373.5192      11.858         11.858         11.858         1667.379     
     15000   790.32924     -19450.74       6.4359586     -19444.304     -2675.1975      11.858         11.858         11.858         1667.379     
     15100   987.80027     -19452.529      8.044042      -19444.485      980.21198      11.858         11.858         11.858         1667.379     
     15200   962.0521      -19452.476      7.8343646     -19444.642     -3589.9766      11.858         11.858         11.858         1667.379     
     15300   821.33272     -19451.449      6.688432      -19444.76      -3254.0212      11.858         11.858         11.858         1667.379     
     15400   807.91201     -19451.424      6.5791419     -19444.845     -1960.9091      11.858         11.858         11.858         1667.379     
     15500   859.7631      -19451.901      7.0013855     -19444.899     -5796.6279      11.858         11.858         11.858         1667.379     
     15600   895.43537     -19452.228      7.2918787     -19444.936     -5128.8043      11.858         11.858         11.858         1667.379     
     15700   932.24333     -19452.565      7.5916202     -19444.974     -4705.5235      11.858         11.858         11.858         1667.379     
     15800   822.32747     -19451.717      6.6965325     -19445.02      -9647.4607      11.858         11.858         11.858         1667.379     
     15900   688.57372     -19450.656      5.6073238     -19445.048     -8432.0058      11.858         11.858         11.858         1667.379     
     16000   805.98463     -19451.571      6.5634465     -19445.007     -5676.8875      11.858         11.858         11.858         1667.379     
     16100   984.60375     -19452.927      8.0180115     -19444.909     -4171.2622      11.858         11.858         11.858         1667.379     
     16200   912.72984     -19452.198      7.4327142     -19444.765      2373.3899      11.858         11.858         11.858         1667.379     
     16300   916.58091     -19452.07       7.464075      -19444.606     -6794.6956      11.858         11.858         11.858         1667.379     
     16400   820.33456     -19451.089      6.6803035     -19444.409     -3765.7555      11.858         11.858         11.858         1667.379     
     16500   859.78027     -19451.104      7.0015253     -19444.103     -4802.9358      11.858         11.858         11.858         1667.379     
     16600   991.67804     -19451.743      8.0756202     -19443.667     -8953.841       11.858         11.858         11.858         1667.379     
     16700   990.93184     -19451.225      8.0695435     -19443.155     -7253.6387      11.858         11.858         11.858         1667.379     
     16800   1003.5711     -19450.861      8.1724698     -19442.689     -7501.2246      11.858         11.858         11.858         1667.379     
     16900   1013.1805     -19450.577      8.2507234     -19442.327     -10334.543      11.858         11.858         11.858         1667.379     
     17000   956.32801     -19449.865      7.7877511     -19442.078     -4431.8996      11.858         11.858         11.858         1667.379     
     17100   1104.627      -19450.933      8.9954072     -19441.938     -7971.2488      11.858         11.858         11.858         1667.379     
     17200   1000.1773     -19450.119      8.1448327     -19441.974     -7071.9962      11.858         11.858         11.858         1667.379     
     17300   963.16253     -19449.952      7.8434073     -19442.109     -4318.6312      11.858         11.858         11.858         1667.379     
     17400   775.43775     -19448.589      6.3146914     -19442.275     -6342.7016      11.858         11.858         11.858         1667.379     
     17500   900.06024     -19449.735      7.3295408     -19442.405     -6279.1454      11.858         11.858         11.858         1667.379     
     17600   920.68914     -19450.048      7.49753       -19442.55      -6661.8404      11.858         11.858         11.858         1667.379     
     17700   956.03108     -19450.504      7.7853331     -19442.718     -5135.8415      11.858         11.858         11.858         1667.379     
     17800   1027.0367     -19451.299      8.3635597     -19442.936     -141.04321      11.858         11.858         11.858         1667.379     
     17900   977.7049      -19451.18       7.9618314     -19443.218      4799.4862      11.858         11.858         11.858         1667.379     
     18000   1040.2709     -19451.97       8.4713305     -19443.498     -4087.2009      11.858         11.858         11.858         1667.379     
     18100   948.57244     -19451.481      7.7245945     -19443.757     -3344.6029      11.858         11.858         11.858         1667.379     
     18200   895.72109     -19451.279      7.2942054     -19443.984     -2179.3942      11.858         11.858         11.858         1667.379     
     18300   865.18252     -19451.199      7.0455179     -19444.154     -529.15192      11.858         11.858         11.858         1667.379     
     18400   875.28247     -19451.402      7.1277658     -19444.274      1710.9013      11.858         11.858         11.858         1667.379     
     18500   877.62895     -19451.513      7.1468741     -19444.366     -5314.439       11.858         11.858         11.858         1667.379     
     18600   1063.6501     -19453.111      8.6617165     -19444.449     -6588.3739      11.858         11.858         11.858         1667.379     
     18700   874.50134     -19451.645      7.1214047     -19444.523     -522.1935       11.858         11.858         11.858         1667.379     
     18800   840.83471     -19451.428      6.8472443     -19444.581     -3676.0577      11.858         11.858         11.858         1667.379     
     18900   830.25174     -19451.355      6.761063      -19444.594     -1490.02        11.858         11.858         11.858         1667.379     
     19000   998.23212     -19452.705      8.1289926     -19444.576     -2399.0789      11.858         11.858         11.858         1667.379     
     19100   883.50223     -19451.77       7.1947025     -19444.576     -1375.4851      11.858         11.858         11.858         1667.379     
     19200   979.86893     -19452.582      7.979454      -19444.603     -5795.7277      11.858         11.858         11.858         1667.379     
     19300   835.8306      -19451.461      6.8064938     -19444.655      756.75852      11.858         11.858         11.858         1667.379     
     19400   900.76128     -19452.014      7.3352496     -19444.679      666.4769       11.858         11.858         11.858         1667.379     
     19500   853.50231     -19451.662      6.9504014     -19444.712     -8100.7523      11.858         11.858         11.858         1667.379     
     19600   902.84179     -19452.082      7.352192      -19444.73      -2809.738       11.858         11.858         11.858         1667.379     
     19700   949.18854     -19452.462      7.7296117     -19444.732     -4914.4412      11.858         11.858         11.858         1667.379     
     19800   808.56803     -19451.312      6.5844841     -19444.727     -4752.1054      11.858         11.858         11.858         1667.379     
     19900   967.42285     -19452.551      7.8781007     -19444.673     -3917.8766      11.858         11.858         11.858         1667.379     
     20000   900.79897     -19451.916      7.3355566     -19444.581     -5277.7648      11.858         11.858         11.858         1667.379     
     20100   839.20949     -19451.275      6.8340094     -19444.441     -7170.8995      11.858         11.858         11.858         1667.379     
     20200   861.39308     -19451.244      7.014659      -19444.23      -1099.009       11.858         11.858         11.858         1667.379     
     20300   983.03391     -19451.91       8.0052276     -19443.905     -6515.836       11.858         11.858         11.858         1667.379     
     20400   838.44224     -19450.278      6.8277614     -19443.451     -6801.6061      11.858         11.858         11.858         1667.379     
     20500   1085.1434     -19451.689      8.8367452     -19442.852     -6280.8531      11.858         11.858         11.858         1667.379     
     20600   1120.4728     -19451.476      9.1244463     -19442.352      1944.0239      11.858         11.858         11.858         1667.379     
     20700   890.55507     -19449.273      7.2521365     -19442.021     -1832.1864      11.858         11.858         11.858         1667.379     
     20800   910.87158     -19449.242      7.4175817     -19441.824     -6129.8439      11.858         11.858         11.858         1667.379     
     20900   1042.8574     -19450.195      8.4923939     -19441.702     -1908.5599      11.858         11.858         11.858         1667.379     
     21000   1111.1391     -19450.729      9.0484377     -19441.68      -1981.1487      11.858         11.858         11.858         1667.379     
     21100   1024.9049     -19450.105      8.3461995     -19441.759     -2016.4991      11.858         11.858         11.858         1667.379     
     21200   1026.4978     -19450.271      8.3591708     -19441.912     -3150.3476      11.858         11.858         11.858         1667.379     
     21300   893.74717     -19449.365      7.278131      -19442.087     -872.9757       11.858         11.858         11.858         1667.379     
     21400   1121.2995     -19451.439      9.1311779     -19442.308     -11238.111      11.858         11.858         11.858         1667.379     
     21500   983.25012     -19450.599      8.0069884     -19442.592     -6101.9639      11.858         11.858         11.858         1667.379     
     21600   869.89032     -19449.973      7.0838554     -19442.889      3139.9887      11.858         11.858         11.858         1667.379     
     21700   869.45745     -19450.222      7.0803304     -19443.142     -2924.0382      11.858         11.858         11.858         1667.379     
     21800   888.60665     -19450.596      7.2362697     -19443.359      43.576165      11.858         11.858         11.858         1667.379     
     21900   837.70474     -19450.369      6.8217557     -19443.547     -9982.2808      11.858         11.858         11.858         1667.379     
     22000   974.41469     -19451.632      7.935038      -19443.697      2836.376       11.858         11.858         11.858         1667.379     
     22100   971.11446     -19451.739      7.9081629     -19443.831     -95.493037      11.858         11.858         11.858         1667.379     
     22200   911.25067     -19451.364      7.4206688     -19443.943     -4944.4034      11.858         11.858         11.858         1667.379     
     22300   873.62382     -19451.14       7.1142587     -19444.026      206.97331      11.858         11.858         11.858         1667.379     
     22400   783.61884     -19450.438      6.3813131     -19444.057     -2126.4561      11.858         11.858         11.858         1667.379     
     22500   879.99062     -19451.204      7.1661061     -19444.037     -1422.642       11.858         11.858         11.858         1667.379     
     22600   894.96374     -19451.308      7.288038      -19444.02       88.417067      11.858         11.858         11.858         1667.379     
     22700   880.28177     -19451.189      7.168477      -19444.021     -2817.5172      11.858         11.858         11.858         1667.379     
     22800   880.57306     -19451.186      7.1708491     -19444.015     -3301.3873      11.858         11.858         11.858         1667.379     
     22900   869.22851     -19451.074      7.078466      -19443.995     -306.96449      11.858         11.858         11.858         1667.379     
     23000   875.35078     -19451.114      7.128322      -19443.986     -9121.3263      11.858         11.858         11.858         1667.379     
     23100   949.86755     -19451.72       7.7351411     -19443.985     -5366.238       11.858         11.858         11.858         1667.379     
     23200   937.57832     -19451.591      7.6350651     -19443.956     -6079.2922      11.858         11.858         11.858         1667.379     
     23300   876.36287     -19451.058      7.1365638     -19443.922     -5449.3569      11.858         11.858         11.858         1667.379     
     23400   926.05295     -19451.431      7.5412095     -19443.89      -6545.5696      11.858         11.858         11.858         1667.379     
     23500   914.40103     -19451.303      7.4463234     -19443.856     -914.45236      11.858         11.858         11.858         1667.379     
     23600   866.30024     -19450.868      7.05462       -19443.814     -4213.7573      11.858         11.858         11.858         1667.379     
     23700   937.84166     -19451.428      7.6372096     -19443.791     -5881.9141      11.858         11.858         11.858         1667.379     
     23800   928.46834     -19451.346      7.560879      -19443.785     -9033.1896      11.858         11.858         11.858         1667.379     
     23900   987.96683     -19451.852      8.0453983     -19443.806     -8997.162       11.858         11.858         11.858         1667.379     
     24000   973.67154     -19451.836      7.9289862     -19443.907     -3802.2716      11.858         11.858         11.858         1667.379     
     24100   798.8637      -19450.619      6.505458      -19444.113     -12737.283      11.858         11.858         11.858         1667.379     
     24200   849.45229     -19451.264      6.9174205     -19444.347     -4872.6945      11.858         11.858         11.858         1667.379     
     24300   833.31822     -19451.416      6.7860345     -19444.63      -2952.1421      11.858         11.858         11.858         1667.379     
     24400   773.26967     -19451.198      6.2970359     -19444.901     -6565.9334      11.858         11.858         11.858         1667.379     
     24500   785.0341      -19451.523      6.3928382     -19445.13       1199.8397      11.858         11.858         11.858         1667.379     
     24600   896.1169      -19452.631      7.2974286     -19445.334     -5276.5718      11.858         11.858         11.858         1667.379     
     24700   764.38244     -19451.727      6.2246637     -19445.502     -5757.7223      11.858         11.858         11.858         1667.379     
     24800   837.68324     -19452.456      6.8215806     -19445.635     -7711.8159      11.858         11.858         11.858         1667.379     
     24900   885.57892     -19452.951      7.2116137     -19445.739     -5719.9894      11.858         11.858         11.858         1667.379     
     25000   691.80944     -19451.43       5.6336735     -19445.797     -5592.2585      11.858         11.858         11.858         1667.379     
     25100   801.42102     -19452.306      6.5262832     -19445.78       169.69615      11.858         11.858         11.858         1667.379     
     25200   835.36723     -19452.512      6.8027204     -19445.71       309.81165      11.858         11.858         11.858         1667.379     
     25300   787.02179     -19452.007      6.4090247     -19445.598     -1221.2583      11.858         11.858         11.858         1667.379     
     25400   791.09606     -19451.872      6.442203      -19445.43       2110.0159      11.858         11.858         11.858         1667.379     
     25500   885.5694      -19452.397      7.2115362     -19445.186     -554.49455      11.858         11.858         11.858         1667.379     
     25600   847.17945     -19451.772      6.8989119     -19444.873     -8213.7768      11.858         11.858         11.858         1667.379     
     25700   940.64962     -19452.151      7.6600759     -19444.491     -2997.1177      11.858         11.858         11.858         1667.379     
     25800   1022.993      -19452.427      8.3306299     -19444.097      765.89937      11.858         11.858         11.858         1667.379     
     25900   874.03963     -19450.932      7.1176449     -19443.814     -1657.6769      11.858         11.858         11.858         1667.379     
     26000   885.03331     -19450.817      7.2071706     -19443.609     -11102.011      11.858         11.858         11.858         1667.379     
     26100   793.32655     -19449.882      6.4603668     -19443.421     -3086.8801      11.858         11.858         11.858         1667.379     
     26200   913.99158     -19450.687      7.4429891     -19443.244     -3643.3469      11.858         11.858         11.858         1667.379     
     26300   908.94494     -19450.517      7.4018923     -19443.115      800.8398       11.858         11.858         11.858         1667.379     
     26400   935.53494     -19450.647      7.6184251     -19443.028      2959.2518      11.858         11.858         11.858         1667.379     
     26500   933.04376     -19450.562      7.5981384     -19442.964      4437.0674      11.858         11.858         11.858         1667.379     
     26600   885.0091      -19450.131      7.2069735     -19442.924      6704.9848      11.858         11.858         11.858         1667.379     
     26700   963.1991      -19450.798      7.8437051     -19442.954     -2149.5813      11.858         11.858         11.858         1667.379     
     26800   972.96198     -19450.942      7.923208      -19443.019     -639.73472      11.858         11.858         11.858         1667.379     
     26900   982.0558      -19451.088      7.9972625     -19443.091      327.29774      11.858         11.858         11.858         1667.379     
     27000   814.94325     -19449.781      6.6364        -19443.144     -7481.7         11.858         11.858         11.858         1667.379     
     27100   875.48349     -19450.293      7.1294028     -19443.164     -1310.1284      11.858         11.858         11.858         1667.379     
     27200   908.04759     -19450.592      7.3945849     -19443.197     -6354.3983      11.858         11.858         11.858         1667.379     
     27300   880.61492     -19450.408      7.17119       -19443.237     -6249.9052      11.858         11.858         11.858         1667.379     
     27400   885.52442     -19450.464      7.21117       -19443.253     -453.73508      11.858         11.858         11.858         1667.379     
     27500   882.37663     -19450.451      7.1855362     -19443.265     -9747.3967      11.858         11.858         11.858         1667.379     
     27600   879.20895     -19450.443      7.1597406     -19443.283     -194.93907      11.858         11.858         11.858         1667.379     
     27700   1006.7716     -19451.536      8.1985333     -19443.338     -8274.577       11.858         11.858         11.858         1667.379     
     27800   866.77176     -19450.509      7.0584597     -19443.451     -1610.6558      11.858         11.858         11.858         1667.379     
     27900   963.99208     -19451.53       7.8501626     -19443.68      -5740.3704      11.858         11.858         11.858         1667.379     
     28000   1005.5816     -19452.232      8.188842      -19444.043     -6966.3577      11.858         11.858         11.858         1667.379     
     28100   919.15395     -19452.153      7.4850283     -19444.668     -1363.9567      11.858         11.858         11.858         1667.379     
     28200   830.48597     -19452.112      6.7629704     -19445.349     -1381.8655      11.858         11.858         11.858         1667.379     
     28300   767.2673      -19452.163      6.2481562     -19445.914     -4314.5615      11.858         11.858         11.858         1667.379     
     28400   709.21706     -19451.999      5.7754305     -19446.224     -3236.9167      11.858         11.858         11.858         1667.379     
     28500   807.11281     -19452.94       6.5726337     -19446.368     -1536.9072      11.858         11.858         11.858         1667.379     
     28600   742.665       -19452.474      6.0478101     -19446.426     -7321.3899      11.858         11.858         11.858         1667.379     
     28700   774.8829      -19452.709      6.310173      -19446.399      2712.5922      11.858         11.858         11.858         1667.379     
     28800   840.18247     -19453.161      6.8419328     -19446.319     -4492.0026      11.858         11.858         11.858         1667.379     
     28900   785.08458     -19452.588      6.3932493     -19446.195     -2670.7446      11.858         11.858         11.858         1667.379     
     29000   689.88531     -19451.621      5.6180045     -19446.003     -6907.5037      11.858         11.858         11.858         1667.379     
     29100   859.68692     -19452.711      7.0007652     -19445.71      -433.25082      11.858         11.858         11.858         1667.379     
     29200   828.33211     -19452.109      6.7454307     -19445.364     -2057.9315      11.858         11.858         11.858         1667.379     
     29300   835.02192     -19451.809      6.7999084     -19445.009     -3153.0901      11.858         11.858         11.858         1667.379     
     29400   874.36314     -19451.783      7.1202793     -19444.662     -3526.2297      11.858         11.858         11.858         1667.379     
     29500   814.21581     -19451.026      6.6304762     -19444.396     -2986.2736      11.858         11.858         11.858         1667.379     
     29600   797.5493      -19450.687      6.4947543     -19444.192     -4441.5854      11.858         11.858         11.858         1667.379     
     29700   798.9378      -19450.487      6.5060614     -19443.981     -5093.0612      11.858         11.858         11.858         1667.379     
     29800   949.04724     -19451.522      7.728461      -19443.794     -6670.3829      11.858         11.858         11.858         1667.379     
     29900   856.96869     -19450.554      6.9786295     -19443.575     -9409.8976      11.858         11.858         11.858         1667.379     
     30000   932.8706      -19450.964      7.5967283     -19443.368      1124.1848      11.858         11.858         11.858         1667.379     
     30100   922.46296     -19450.723      7.5119748     -19443.211     -6773.4987      11.858         11.858         11.858         1667.379     
     30200   1072.5054     -19451.834      8.7338287     -19443.1       -3832.0551      11.858         11.858         11.858         1667.379     
     30300   855.27576     -19450.032      6.9648433     -19443.067     -10640.545      11.858         11.858         11.858         1667.379     
     30400   957.13183     -19450.855      7.7942969     -19443.06      -9845.9944      11.858         11.858         11.858         1667.379     
     30500   1046.3469     -19451.616      8.52081       -19443.095     -5995.7197      11.858         11.858         11.858         1667.379     
     30600   881.59214     -19450.375      7.1791478     -19443.196      5037.7559      11.858         11.858         11.858         1667.379     
     30700   915.18556     -19450.771      7.4527122     -19443.318     -1657.5816      11.858         11.858         11.858         1667.379     
     30800   956.45843     -19451.247      7.7888132     -19443.458      619.08585      11.858         11.858         11.858         1667.379     
     30900   911.9818      -19451.069      7.4266227     -19443.642     -482.97681      11.858         11.858         11.858         1667.379     
     31000   906.13482     -19451.264      7.3790084     -19443.885     -3192.2807      11.858         11.858         11.858         1667.379     
     31100   828.25146     -19450.962      6.744774      -19444.217     -1312.2922      11.858         11.858         11.858         1667.379     
     31200   753.31587     -19450.688      6.1345443     -19444.553     -607.50125      11.858         11.858         11.858         1667.379     
     31300   862.41589     -19451.934      7.0229882     -19444.911     -7537.841       11.858         11.858         11.858         1667.379     
     31400   941.59142     -19452.926      7.6677454     -19445.259     -2374.9879      11.858         11.858         11.858         1667.379     
     31500   811.38213     -19452.199      6.6074004     -19445.592     -1661.1179      11.858         11.858         11.858         1667.379     
     31600   831.16826     -19452.594      6.7685266     -19445.825     -5963.0969      11.858         11.858         11.858         1667.379     
     31700   749.43862     -19452.092      6.1029703     -19445.989     -9475.5905      11.858         11.858         11.858         1667.379     
     31800   763.5055      -19452.29       6.2175224     -19446.072     -6335.5247      11.858         11.858         11.858         1667.379     
     31900   928.34111     -19453.655      7.5598429     -19446.095     -7480.4971      11.858         11.858         11.858         1667.379     
     32000   748.40069     -19452.194      6.094518      -19446.1       -3976.5516      11.858         11.858         11.858         1667.379     
     32100   852.83608     -19452.996      6.944976      -19446.051     -2781.7406      11.858         11.858         11.858         1667.379     
     32200   835.95036     -19452.767      6.8074691     -19445.96      -6358.4952      11.858         11.858         11.858         1667.379     
     32300   797.07365     -19452.338      6.4908809     -19445.847     -10483.54       11.858         11.858         11.858         1667.379     
     32400   780.65568     -19452.063      6.357183      -19445.706     -9700.8244      11.858         11.858         11.858         1667.379     
     32500   732.12132     -19451.489      5.9619488     -19445.527     -1943.5998      11.858         11.858         11.858         1667.379     
     32600   903.70011     -19452.68       7.3591816     -19445.321     -7182.3929      11.858         11.858         11.858         1667.379     
     32700   896.8689      -19452.423      7.3035524     -19445.12      -4522.3223      11.858         11.858         11.858         1667.379     
     32800   801.54846     -19451.483      6.527321      -19444.956     -1804.8059      11.858         11.858         11.858         1667.379     
     32900   935.34461     -19452.439      7.6168751     -19444.823     -7033.155       11.858         11.858         11.858         1667.379     
     33000   845.61968     -19451.623      6.8862101     -19444.737     -1398.4975      11.858         11.858         11.858         1667.379     
     33100   823.85155     -19451.373      6.7089437     -19444.664     -3236.0732      11.858         11.858         11.858         1667.379     
     33200   981.42568     -19452.589      7.9921313     -19444.596     -3285.7458      11.858         11.858         11.858         1667.379     
     33300   926.34223     -19452.093      7.5435652     -19444.55      -569.16991      11.858         11.858         11.858         1667.379     
     33400   933.65474     -19452.111      7.6031139     -19444.508     -6358.6695      11.858         11.858         11.858         1667.379     
     33500   895.21464     -19451.753      7.2900812     -19444.463     -4113.9937      11.858         11.858         11.858         1667.379     
     33600   937.06551     -19452.063      7.6308891     -19444.432     -4793.6685      11.858         11.858         11.858         1667.379     
     33700   927.97679     -19451.961      7.5568761     -19444.404     -1093.8162      11.858         11.858         11.858         1667.379     
     33800   959.2941      -19452.207      7.8119051     -19444.395     -2438.0025      11.858         11.858         11.858         1667.379     
     33900   858.96271     -19451.392      6.9948676     -19444.397      4703.2344      11.858         11.858         11.858         1667.379     
     34000   921.22362     -19451.881      7.5018824     -19444.379     -894.47979      11.858         11.858         11.858         1667.379     
     34100   879.40869     -19451.525      7.1613671     -19444.363      2456.3491      11.858         11.858         11.858         1667.379     
     34200   960.964       -19452.173      7.8255038     -19444.348     -2230.7917      11.858         11.858         11.858         1667.379     
     34300   892.94257     -19451.599      7.2715788     -19444.328      2337.8337      11.858         11.858         11.858         1667.379     
     34400   815.43376     -19450.942      6.6403944     -19444.301     -2706.7466      11.858         11.858         11.858         1667.379     
     34500   950.75813     -19452.002      7.7423934     -19444.259     -6603.8638      11.858         11.858         11.858         1667.379     
     34600   927.29829     -19451.767      7.5513508     -19444.215     -4052.0778      11.858         11.858         11.858         1667.379     
     34700   826.60506     -19450.885      6.7313667     -19444.153     -3677.5371      11.858         11.858         11.858         1667.379     
     34800   770.44497     -19450.345      6.2740332     -19444.071      773.93584      11.858         11.858         11.858         1667.379     
     34900   814.50726     -19450.573      6.6328496     -19443.94      -1508.5038      11.858         11.858         11.858         1667.379     
     35000   949.00473     -19451.45       7.7281148     -19443.722      365.15704      11.858         11.858         11.858         1667.379     
     35100   878.24881     -19450.589      7.1519218     -19443.437     -6183.7573      11.858         11.858         11.858         1667.379     
     35200   779.60062     -19449.501      6.3485913     -19443.153      518.28076      11.858         11.858         11.858         1667.379     
     35300   893.36675     -19450.117      7.2750331     -19442.842     -1041.7379      11.858         11.858         11.858         1667.379     
     35400   907.11943     -19449.913      7.3870265     -19442.526     -6229.333       11.858         11.858         11.858         1667.379     
     35500   905.05871     -19449.617      7.3702453     -19442.247     -4999.9075      11.858         11.858         11.858         1667.379     
     35600   1076.6231     -19450.739      8.767361      -19441.972     -2667.1304      11.858         11.858         11.858         1667.379     
     35700   1054.498      -19450.353      8.5871873     -19441.766     -4640.7515      11.858         11.858         11.858         1667.379     
     35800   943.79782     -19449.338      7.6857129     -19441.652     -1767.137       11.858         11.858         11.858         1667.379     
     35900   824.33243     -19448.315      6.7128598     -19441.602     -5158.0545      11.858         11.858         11.858         1667.379     
     36000   991.5305      -19449.64       8.0744187     -19441.566     -6655.3062      11.858         11.858         11.858         1667.379     
     36100   1038.3255     -19450.032      8.4554888     -19441.577     -7676.6373      11.858         11.858         11.858         1667.379     
     36200   1117.3339     -19450.801      9.0988847     -19441.703     -9558.7912      11.858         11.858         11.858         1667.379     
     36300   960.1019      -19449.784      7.8184834     -19441.966      312.6048       11.858         11.858         11.858         1667.379     
     36400   885.89663     -19449.537      7.214201      -19442.323     -4972.184       11.858         11.858         11.858         1667.379     
     36500   999.31439     -19450.893      8.137806      -19442.755     -5008.5851      11.858         11.858         11.858         1667.379     
     36600   886.02585     -19450.454      7.2152533     -19443.239     -6671.803       11.858         11.858         11.858         1667.379     
     36700   937.13426     -19451.298      7.6314489     -19443.667     -8348.5505      11.858         11.858         11.858         1667.379     
     36800   723.42929     -19449.871      5.8911662     -19443.98      -1187.2356      11.858         11.858         11.858         1667.379     
     36900   816.57642     -19450.793      6.6496995     -19444.144     -5492.4821      11.858         11.858         11.858         1667.379     
     37000   901.66316     -19451.559      7.342594      -19444.217     -8110.885       11.858         11.858         11.858         1667.379     
     37100   980.90674     -19452.231      7.9879053     -19444.243     -2398.3255      11.858         11.858         11.858         1667.379     
     37200   894.1027      -19451.53       7.2810262     -19444.249     -3287.8406      11.858         11.858         11.858         1667.379     
     37300   796.50183     -19450.731      6.4862244     -19444.244     -4351.2058      11.858         11.858         11.858         1667.379     
     37400   981.33028     -19452.236      7.9913543     -19444.245     -2310.1866      11.858         11.858         11.858         1667.379     
     37500   848.39875     -19451.187      6.9088412     -19444.278     -3717.5343      11.858         11.858         11.858         1667.379     
     37600   979.51734     -19452.277      7.9765909     -19444.3       -1920.3848      11.858         11.858         11.858         1667.379     
     37700   885.16205     -19451.551      7.208219      -19444.343     -6351.3934      11.858         11.858         11.858         1667.379     
     37800   963.8028      -19452.252      7.8486213     -19444.403      6589.5852      11.858         11.858         11.858         1667.379     
     37900   899.904       -19451.831      7.3282685     -19444.502     -207.03794      11.858         11.858         11.858         1667.379     
     38000   886.5439      -19451.822      7.219472      -19444.602     -1062.144       11.858         11.858         11.858         1667.379     
     38100   709.24975     -19450.48       5.7756967     -19444.704     -7196.263       11.858         11.858         11.858         1667.379     
     38200   880.66384     -19451.952      7.1715884     -19444.781     -2588.4451      11.858         11.858         11.858         1667.379     
     38300   939.31827     -19452.514      7.6492342     -19444.864     -2501.1013      11.858         11.858         11.858         1667.379     
     38400   873.21489     -19452.108      7.1109287     -19444.997     -10557.473      11.858         11.858         11.858         1667.379     
     38500   966.34852     -19452.983      7.8693521     -19445.113     -4770.2458      11.858         11.858         11.858         1667.379     
     38600   850.68122     -19452.168      6.9274282     -19445.24      -2803.6452      11.858         11.858         11.858         1667.379     
     38700   763.48037     -19451.57       6.2173177     -19445.353     -4096.4864      11.858         11.858         11.858         1667.379     
     38800   851.27311     -19452.378      6.9322482     -19445.446     -7912.655       11.858         11.858         11.858         1667.379     
     38900   790.30635     -19451.946      6.4357722     -19445.51      -2788.2993      11.858         11.858         11.858         1667.379     
     39000   769.45085     -19451.797      6.2659377     -19445.531     -3362.5081      11.858         11.858         11.858         1667.379     
     39100   778.88674     -19451.842      6.3427778     -19445.499     -3857.4186      11.858         11.858         11.858         1667.379     
     39200   846.22333     -19452.281      6.8911259     -19445.39      -8889.9766      11.858         11.858         11.858         1667.379     
     39300   838.80392     -19452.037      6.8307067     -19445.206     -1610.5542      11.858         11.858         11.858         1667.379     
     39400   941.39109     -19452.63       7.666114      -19444.963     -5824.9068      11.858         11.858         11.858         1667.379     
     39500   925.44312     -19452.213      7.5362435     -19444.677     -7117.6018      11.858         11.858         11.858         1667.379     
     39600   849.88763     -19451.285      6.9209657     -19444.364     -1054.2703      11.858         11.858         11.858         1667.379     
     39700   976.79236     -19451.985      7.9544003     -19444.031     -3222.7103      11.858         11.858         11.858         1667.379     
     39800   844.80721     -19450.605      6.8795939     -19443.725     -1664.6552      11.858         11.858         11.858         1667.379     
     39900   893.57376     -19450.732      7.2767189     -19443.455     -4051.0804      11.858         11.858         11.858         1667.379     
     40000   902.04405     -19450.555      7.3456957     -19443.209     -3041.6029      11.858         11.858         11.858         1667.379     
     40100   975.28891     -19450.935      7.9421571     -19442.993     -6351.0743      11.858         11.858         11.858         1667.379     
     40200   1041.9978     -19451.331      8.4853933     -19442.845     -6510.1586      11.858         11.858         11.858         1667.379     
     40300   1026.5024     -19451.124      8.3592083     -19442.764     -3096.371       11.858         11.858         11.858         1667.379     
     40400   963.47738     -19450.63       7.8459713     -19442.784     -6034.1364      11.858         11.858         11.858         1667.379     
     40500   1024.0675     -19451.183      8.3393799     -19442.844     -6646.4088      11.858         11.858         11.858         1667.379     
     40600   809.12853     -19449.527      6.5890485     -19442.938     -1695.8715      11.858         11.858         11.858         1667.379     
     40700   842.13283     -19449.902      6.8578154     -19443.044     -5917.3661      11.858         11.858         11.858         1667.379     
     40800   975.18207     -19451.131      7.9412871     -19443.19      -2566.5431      11.858         11.858         11.858         1667.379     
     40900   781.70939     -19449.798      6.3657637     -19443.432     -3662.9648      11.858         11.858         11.858         1667.379     
     41000   761.77573     -19449.862      6.2034362     -19443.659     -4024.5289      11.858         11.858         11.858         1667.379     
     41100   1015.7058     -19452.211      8.271288      -19443.94      -1865.4748      11.858         11.858         11.858         1667.379     
     41200   902.7632      -19451.752      7.351552      -19444.401     -4561.3588      11.858         11.858         11.858         1667.379     
     41300   720.68723     -19450.743      5.8688366     -19444.874      3786.4631      11.858         11.858         11.858         1667.379     
     41400   757.6184      -19451.432      6.1695814     -19445.263     -1441.6418      11.858         11.858         11.858         1667.379     
     41500   826.16469     -19452.3        6.7277806     -19445.572     -9749.4587      11.858         11.858         11.858         1667.379     
     41600   758.9614      -19451.925      6.180518      -19445.744     -7127.6293      11.858         11.858         11.858         1667.379     
     41700   775.0387      -19452.121      6.3114418     -19445.809     -8253.0347      11.858         11.858         11.858         1667.379     
     41800   811.76722     -19452.423      6.6105364     -19445.812     -2426.0729      11.858         11.858         11.858         1667.379     
     41900   819.70612     -19452.457      6.6751859     -19445.782     -5793.8527      11.858         11.858         11.858         1667.379     
     42000   780.75603     -19452.085      6.3580002     -19445.727     -6641.0218      11.858         11.858         11.858         1667.379     
     42100   828.65738     -19452.378      6.7480795     -19445.63      -10168.059      11.858         11.858         11.858         1667.379     
     42200   712.28624     -19451.293      5.800424      -19445.493     -3796.844       11.858         11.858         11.858         1667.379     
     42300   861.43361     -19452.355      7.0149891     -19445.34       3060.3122      11.858         11.858         11.858         1667.379     
     42400   847.13309     -19452.061      6.8985344     -19445.163     -3850.5456      11.858         11.858         11.858         1667.379     
     42500   805.39025     -19451.549      6.5586062     -19444.991     -4034.921       11.858         11.858         11.858         1667.379     
     42600   941.71191     -19452.486      7.6687265     -19444.818      1860.1869      11.858         11.858         11.858         1667.379     
     42700   898.94095     -19451.961      7.320426      -19444.641     -6662.7996      11.858         11.858         11.858         1667.379     
     42800   957.67208     -19452.259      7.7986964     -19444.461     -9836.3934      11.858         11.858         11.858         1667.379     
     42900   783.54071     -19450.671      6.3806769     -19444.29      -5746.4708      11.858         11.858         11.858         1667.379     
     43000   766.20243     -19450.336      6.2394846     -19444.097     -2686.1438      11.858         11.858         11.858         1667.379     
     43100   923.56786     -19451.374      7.5209725     -19443.853     -4467.8845      11.858         11.858         11.858         1667.379     
     43200   969.73375     -19451.525      7.8969193     -19443.628      800.00861      11.858         11.858         11.858         1667.379     
     43300   938.3249      -19451.079      7.6411448     -19443.437     -43.01751       11.858         11.858         11.858         1667.379     
     43400   939.71227     -19450.948      7.6524427     -19443.296     -7067.0385      11.858         11.858         11.858         1667.379     
     43500   987.14969     -19451.234      8.038744      -19443.195     -2500.0221      11.858         11.858         11.858         1667.379     
     43600   1097.0482     -19452.086      8.9336907     -19443.152     -3598.8966      11.858         11.858         11.858         1667.379     
     43700   850.30547     -19450.098      6.9243683     -19443.173     -817.80215      11.858         11.858         11.858         1667.379     
     43800   729.43518     -19449.131      5.9400745     -19443.191     -2749.6484      11.858         11.858         11.858         1667.379     
     43900   863.56938     -19450.209      7.0323815     -19443.177      1591.2527      11.858         11.858         11.858         1667.379     
     44000   870.23283     -19450.232      7.0866446     -19443.145     -115.59377      11.858         11.858         11.858         1667.379     
     44100   883.5915      -19450.306      7.1954294     -19443.111     -1706.8683      11.858         11.858         11.858         1667.379     
     44200   930.41586     -19450.662      7.5767384     -19443.086     -11758.612      11.858         11.858         11.858         1667.379     
     44300   980.92676     -19451.086      7.9880683     -19443.098     -4217.5594      11.858         11.858         11.858         1667.379     
     44400   827.38931     -19449.868      6.7377531     -19443.131      1216.0321      11.858         11.858         11.858         1667.379     
     44500   881.01477     -19450.313      7.1744461     -19443.139     -11865.744      11.858         11.858         11.858         1667.379     
     44600   920.27709     -19450.68       7.4941745     -19443.186     -6572.1204      11.858         11.858         11.858         1667.379     
     44700   965.41528     -19451.082      7.8617523     -19443.22      -6055.3263      11.858         11.858         11.858         1667.379     
     44800   905.30687     -19450.629      7.3722661     -19443.257     -2731.2173      11.858         11.858         11.858         1667.379     
     44900   868.95121     -19450.362      7.0762079     -19443.286     -5121.3943      11.858         11.858         11.858         1667.379     
     45000   858.77892     -19450.296      6.9933709     -19443.303     -7699.7185      11.858         11.858         11.858         1667.379     
     45100   886.17699     -19450.527      7.2164841     -19443.311     -6163.6491      11.858         11.858         11.858         1667.379     
     45200   794.93155     -19449.795      6.473437      -19443.321     -6368.9638      11.858         11.858         11.858         1667.379     
     45300   985.92703     -19451.357      8.0287875     -19443.328     -4887.7478      11.858         11.858         11.858         1667.379     
     45400   858.84896     -19450.366      6.9939413     -19443.372      3093.9879      11.858         11.858         11.858         1667.379     
     45500   820.56786     -19450.121      6.6822034     -19443.439     -5492.26        11.858         11.858         11.858         1667.379     
     45600   908.94049     -19450.911      7.4018561     -19443.509     -2458.4476      11.858         11.858         11.858         1667.379     
     45700   905.02518     -19450.938      7.3699722     -19443.568     -496.96197      11.858         11.858         11.858         1667.379     
     45800   850.06581     -19450.55       6.9224167     -19443.628     -5133.1724      11.858         11.858         11.858         1667.379     
     45900   917.80855     -19451.164      7.4740722     -19443.69      -8586.9573      11.858         11.858         11.858         1667.379     
     46000   800.1355      -19450.276      6.5158148     -19443.76       571.80551      11.858         11.858         11.858         1667.379     
     46100   913.65949     -19451.257      7.4402847     -19443.816     -2695.8846      11.858         11.858         11.858         1667.379     
     46200   883.66047     -19451.106      7.1959911     -19443.91       4861.7053      11.858         11.858         11.858         1667.379     
     46300   816.73989     -19450.672      6.6510307     -19444.021     -4861.1529      11.858         11.858         11.858         1667.379     
     46400   872.36557     -19451.24       7.1040123     -19444.136     -2655.2058      11.858         11.858         11.858         1667.379     
     46500   793.73672     -19450.749      6.4637069     -19444.285     -142.04715      11.858         11.858         11.858         1667.379     
     46600   963.42034     -19452.331      7.8455067     -19444.486     -11023.906      11.858         11.858         11.858         1667.379     
     46700   822.41011     -19451.423      6.6972056     -19444.726     -2433.4827      11.858         11.858         11.858         1667.379     
     46800   885.5827      -19452.223      7.2116445     -19445.011     -5094.1939      11.858         11.858         11.858         1667.379     
     46900   935.06609     -19452.933      7.614607      -19445.319     -5129.3658      11.858         11.858         11.858         1667.379     
     47000   770.91869     -19451.864      6.2778909     -19445.587     -2167.2715      11.858         11.858         11.858         1667.379     
     47100   942.40131     -19453.482      7.6743406     -19445.807      3540.316       11.858         11.858         11.858         1667.379     
     47200   758.16873     -19452.17       6.174063      -19445.996     -2106.9769      11.858         11.858         11.858         1667.379     
     47300   702.67946     -19451.844      5.7221923     -19446.121     -9547.1727      11.858         11.858         11.858         1667.379     
     47400   868.84771     -19453.265      7.075365      -19446.19      -8168.7043      11.858         11.858         11.858         1667.379     
     47500   791.47271     -19452.67       6.4452703     -19446.225     -4216.5361      11.858         11.858         11.858         1667.379     
     47600   732.68148     -19452.169      5.9665104     -19446.203     -7261.6006      11.858         11.858         11.858         1667.379     
     47700   675.59205     -19451.61       5.501609      -19446.108     -683.44962      11.858         11.858         11.858         1667.379     
     47800   844.59164     -19452.81       6.8778384     -19445.932     -3732.607       11.858         11.858         11.858         1667.379     
     47900   882.85332     -19452.876      7.1894182     -19445.687     -5829.0004      11.858         11.858         11.858         1667.379     
     48000   803.41915     -19451.925      6.5425548     -19445.382     -10654.654      11.858         11.858         11.858         1667.379     
     48100   843.62611     -19451.869      6.8699757     -19444.999     -3347.611       11.858         11.858         11.858         1667.379     
     48200   945.11966     -19452.253      7.6964772     -19444.557     -3579.7685      11.858         11.858         11.858         1667.379     
     48300   862.8938      -19451.201      7.02688       -19444.174     -5939.012       11.858         11.858         11.858         1667.379     
     48400   909.9171      -19451.273      7.409809      -19443.864     -3145.4004      11.858         11.858         11.858         1667.379     
     48500   972.90792     -19451.574      7.9227678     -19443.652     -8815.4331      11.858         11.858         11.858         1667.379     
     48600   976.79489     -19451.486      7.9544209     -19443.531     -2903.6262      11.858         11.858         11.858         1667.379     
     48700   857.40618     -19450.444      6.9821922     -19443.461     -5367.1716      11.858         11.858         11.858         1667.379     
     48800   985.04569     -19451.427      8.0216103     -19443.405     -6366.7545      11.858         11.858         11.858         1667.379     
     48900   984.03798     -19451.434      8.0134042     -19443.421      1353.5786      11.858         11.858         11.858         1667.379     
     49000   965.75992     -19451.335      7.8645588     -19443.471      846.5366       11.858         11.858         11.858         1667.379     
     49100   994.87232     -19451.675      8.1016324     -19443.574     -5295.3745      11.858         11.858         11.858         1667.379     
     49200   952.5501      -19451.469      7.7569862     -19443.712     -3168.3715      11.858         11.858         11.858         1667.379     
     49300   1022.8661     -19452.195      8.329597      -19443.865     -3217.0059      11.858         11.858         11.858         1667.379     
     49400   914.84478     -19451.522      7.449937      -19444.072     -3927.3752      11.858         11.858         11.858         1667.379     
     49500   904.7961      -19451.679      7.3681067     -19444.311     -4027.7108      11.858         11.858         11.858         1667.379     
     49600   751.68826     -19450.629      6.12129       -19444.508     -3523.7441      11.858         11.858         11.858         1667.379     
     49700   798.38333     -19451.139      6.5015462     -19444.637     -7540.7932      11.858         11.858         11.858         1667.379     
     49800   879.61048     -19451.881      7.1630104     -19444.718     -1049.8915      11.858         11.858         11.858         1667.379     
     49900   864.58088     -19451.842      7.0406186     -19444.801     -5250.5589      11.858         11.858         11.858         1667.379     
     50000   807.31454     -19451.449      6.5742765     -19444.875      3277.8852      11.858         11.858         11.858         1667.379     
     50100   923.30807     -19452.455      7.5188569     -19444.936     -3476.8089      11.858         11.858         11.858         1667.379     
     50200   861.81943     -19452.039      7.018131      -19445.021     -4518.8188      11.858         11.858         11.858         1667.379     
     50300   792.91088     -19451.542      6.4569819     -19445.085     -9294.87        11.858         11.858         11.858         1667.379     
     50400   872.45707     -19452.206      7.1047574     -19445.101     -8752.8224      11.858         11.858         11.858         1667.379     
     50500   881.21256     -19452.247      7.1760568     -19445.071     -6852.7961      11.858         11.858         11.858         1667.379     
     50600   823.35694     -19451.681      6.7049159     -19444.976     -7908.5042      11.858         11.858         11.858         1667.379     
     50700   885.98594     -19452          7.2149283     -19444.785     -4724.1599      11.858         11.858         11.858         1667.379     
     50800   881.9395      -19451.696      7.1819766     -19444.514      916.29434      11.858         11.858         11.858         1667.379     
     50900   875.66543     -19451.329      7.1308843     -19444.199     -6011.9931      11.858         11.858         11.858         1667.379     
     51000   917.33982     -19451.349      7.4702551     -19443.879     -3255.618       11.858         11.858         11.858         1667.379     
     51100   868.11151     -19450.651      7.0693698     -19443.581     -6927.8141      11.858         11.858         11.858         1667.379     
     51200   1028.5888     -19451.66       8.3761992     -19443.284     -4506.4506      11.858         11.858         11.858         1667.379     
     51300   842.62522     -19449.852      6.8618251     -19442.99       2473.5657      11.858         11.858         11.858         1667.379     
     51400   1003.9818     -19450.924      8.1758144     -19442.748     -3645.6638      11.858         11.858         11.858         1667.379     
     51500   937.2506      -19450.19       7.6323963     -19442.557     -3279.1953      11.858         11.858         11.858         1667.379     
     51600   917.72254     -19449.874      7.4733717     -19442.4       -4158.2931      11.858         11.858         11.858         1667.379     
     51700   984.8523      -19450.293      8.0200355     -19442.273     -2297.0842      11.858         11.858         11.858         1667.379     
     51800   975.91167     -19450.116      7.9472285     -19442.169     -7562.5575      11.858         11.858         11.858         1667.379     
     51900   876.38421     -19449.258      7.1367376     -19442.121     -7401.183       11.858         11.858         11.858         1667.379     
     52000   1089.6946     -19450.947      8.8738075     -19442.073      2454.4778      11.858         11.858         11.858         1667.379     
     52100   980.26563     -19450.044      7.9826845     -19442.062     -6466.288       11.858         11.858         11.858         1667.379     
[...]
     87400   904.0276      -19451.895      7.3618486     -19444.533     -4104.0898      11.858         11.858         11.858         1667.379     
     87500   925.19686     -19451.987      7.534238      -19444.452     -2215.4448      11.858         11.858         11.858         1667.379     
     87600   845.16481     -19451.219      6.882506      -19444.336     -8459.3739      11.858         11.858         11.858         1667.379     
     87700   934.45927     -19451.763      7.6096654     -19444.153     -5138.4261      11.858         11.858         11.858         1667.379     
     87800   1071.2645     -19452.62       8.7237235     -19443.896     -9177.3693      11.858         11.858         11.858         1667.379     
     87900   956.68135     -19451.412      7.7906285     -19443.621     -4199.8638      11.858         11.858         11.858         1667.379     
     88000   946.61294     -19451.025      7.7086376     -19443.316      1449.1574      11.858         11.858         11.858         1667.379     
     88100   864.83237     -19450.025      7.0426666     -19442.982     -736.56615      11.858         11.858         11.858         1667.379     
     88200   1081.678      -19451.424      8.8085247     -19442.615     -106.78336      11.858         11.858         11.858         1667.379     
     88300   935.82379     -19449.858      7.6207773     -19442.237     -1701.3851      11.858         11.858         11.858         1667.379     
     88400   1089.8318     -19450.786      8.8749243     -19441.911     -559.61613      11.858         11.858         11.858         1667.379     
     88500   1035.2285     -19450.082      8.4302685     -19441.652      5693.7666      11.858         11.858         11.858         1667.379     
     88600   1022.63       -19449.804      8.3276744     -19441.476     -4517.0905      11.858         11.858         11.858         1667.379     
     88700   1048.9579     -19449.945      8.5420723     -19441.403     -7423.1642      11.858         11.858         11.858         1667.379     
     88800   1020.3769     -19449.758      8.3093263     -19441.449     -104.65137      11.858         11.858         11.858         1667.379     
     88900   1067.7541     -19450.278      8.6951374     -19441.583     -444.06597      11.858         11.858         11.858         1667.379     
     89000   911.75189     -19449.279      7.4247504     -19441.854     -6171.1819      11.858         11.858         11.858         1667.379     
     89100   984.47135     -19450.275      8.0169333     -19442.258     -8445.5727      11.858         11.858         11.858         1667.379     
     89200   917.1763      -19450.291      7.4689235     -19442.823     -647.24835      11.858         11.858         11.858         1667.379     
     89300   858.2756      -19450.393      6.9892722     -19443.404     -3287.5508      11.858         11.858         11.858         1667.379     
     89400   998.8217      -19451.986      8.1337938     -19443.852     -4451.3227      11.858         11.858         11.858         1667.379     
     89500   964.90984     -19452.089      7.8576363     -19444.231     -7628.9782      11.858         11.858         11.858         1667.379     
     89600   929.79837     -19452.113      7.5717099     -19444.541     -2068.1437      11.858         11.858         11.858         1667.379     
     89700   862.63581     -19451.783      7.0247791     -19444.758     -4476.9749      11.858         11.858         11.858         1667.379     
     89800   851.71175     -19451.845      6.9358202     -19444.909     -10076.271      11.858         11.858         11.858         1667.379     
     89900   1054.4677     -19453.607      8.5869412     -19445.02      -2541.1784      11.858         11.858         11.858         1667.379     
     90000   880.54828     -19452.32       7.1706473     -19445.149     -2896.2609      11.858         11.858         11.858         1667.379     
     90100   771.61147     -19451.551      6.2835325     -19445.268     -3544.1732      11.858         11.858         11.858         1667.379     
     90200   924.02514     -19452.847      7.5246963     -19445.322     -15767.193      11.858         11.858         11.858         1667.379     
     90300   821.76427     -19452.041      6.6919462     -19445.349     -6763.3564      11.858         11.858         11.858         1667.379     
     90400   808.28389     -19451.919      6.5821702     -19445.337     -3263.732       11.858         11.858         11.858         1667.379     
     90500   856.82003     -19452.26       6.9774189     -19445.283     -5063.5118      11.858         11.858         11.858         1667.379     
     90600   750.23931     -19451.323      6.1094907     -19445.213     -1871.3379      11.858         11.858         11.858         1667.379     
     90700   698.27875     -19450.763      5.6863556     -19445.076     -7786.3762      11.858         11.858         11.858         1667.379     
     90800   845.81988     -19451.72       6.8878404     -19444.832     -331.71466      11.858         11.858         11.858         1667.379     
     90900   854.47294     -19451.491      6.9583057     -19444.533      1700.5704      11.858         11.858         11.858         1667.379     
     91000   798.36969     -19450.701      6.5014351     -19444.199     -9557.9923      11.858         11.858         11.858         1667.379     
     91100   932.8869      -19451.453      7.596861      -19443.857     -6507.7267      11.858         11.858         11.858         1667.379     
     91200   966.58407     -19451.365      7.8712702     -19443.494      308.5152       11.858         11.858         11.858         1667.379     
     91300   928.91346     -19450.724      7.5645038     -19443.159     -6007.0161      11.858         11.858         11.858         1667.379     
     91400   983.25782     -19450.914      8.007051      -19442.907     -5564.9335      11.858         11.858         11.858         1667.379     
     91500   947.15938     -19450.455      7.7130874     -19442.742     -4268.2378      11.858         11.858         11.858         1667.379     
     91600   970.98848     -19450.537      7.907137      -19442.63      -2684.0803      11.858         11.858         11.858         1667.379     
     91700   996.3719      -19450.704      8.1138441     -19442.59      -2108.2827      11.858         11.858         11.858         1667.379     
     91800   1031.8301     -19451.021      8.4025942     -19442.619      1012.7778      11.858         11.858         11.858         1667.379     
     91900   976.25078     -19450.651      7.94999       -19442.701     -3269.5801      11.858         11.858         11.858         1667.379     
     92000   947.29555     -19450.512      7.7141963     -19442.798     -3923.4624      11.858         11.858         11.858         1667.379     
     92100   892.77212     -19450.136      7.2701908     -19442.865     -144.11445      11.858         11.858         11.858         1667.379     
     92200   817.08587     -19449.572      6.6538482     -19442.918     -5851.7756      11.858         11.858         11.858         1667.379     
     92300   882.36752     -19450.114      7.1854621     -19442.929      3708.7071      11.858         11.858         11.858         1667.379     
     92400   951.53118     -19450.688      7.7486887     -19442.939     -6326.1         11.858         11.858         11.858         1667.379     
     92500   939.30968     -19450.652      7.6491642     -19443.003     -2469.6471      11.858         11.858         11.858         1667.379     
     92600   943.52156     -19450.761      7.6834632     -19443.077     -6921.4531      11.858         11.858         11.858         1667.379     
     92700   849.56711     -19450.082      6.9183556     -19443.164     -10356.935      11.858         11.858         11.858         1667.379     
     92800   859.64679     -19450.235      7.0004384     -19443.234     -641.88137      11.858         11.858         11.858         1667.379     
     92900   992.59715     -19451.349      8.0831049     -19443.266      937.69275      11.858         11.858         11.858         1667.379     
     93000   954.4724      -19451.069      7.7726401     -19443.296      4386.0035      11.858         11.858         11.858         1667.379     
     93100   869.17979     -19450.44       7.0780692     -19443.362     -5528.4393      11.858         11.858         11.858         1667.379     
     93200   904.00633     -19450.787      7.3616753     -19443.425     -5560.4743      11.858         11.858         11.858         1667.379     
     93300   879.15711     -19450.629      7.1593184     -19443.47      -6642.0184      11.858         11.858         11.858         1667.379     
     93400   923.4834      -19451.018      7.5202847     -19443.498     -6269.6561      11.858         11.858         11.858         1667.379     
     93500   936.45689     -19451.175      7.6259329     -19443.549      4218.8822      11.858         11.858         11.858         1667.379     
     93600   927.43792     -19451.186      7.5524879     -19443.634     -1938.5604      11.858         11.858         11.858         1667.379     
     93700   964.97905     -19451.661      7.8581999     -19443.803     -219.02938      11.858         11.858         11.858         1667.379     
     93800   781.24133     -19450.479      6.3619522     -19444.117     -589.96439      11.858         11.858         11.858         1667.379     
     93900   856.30444     -19451.53       6.9732202     -19444.557     -5465.7803      11.858         11.858         11.858         1667.379     
     94000   845.52562     -19451.933      6.8854442     -19445.047     -4542.1786      11.858         11.858         11.858         1667.379     
     94100   754.30954     -19451.572      6.1426361     -19445.429      1947.2485      11.858         11.858         11.858         1667.379     
     94200   868.28487     -19452.795      7.0707815     -19445.724     -3122.6688      11.858         11.858         11.858         1667.379     
     94300   760.55988     -19452.102      6.1935351     -19445.909     -387.47624      11.858         11.858         11.858         1667.379     
     94400   832.07365     -19452.772      6.7758995     -19445.996     -4877.0706      11.858         11.858         11.858         1667.379     
     94500   784.23045     -19452.396      6.3862938     -19446.009     -6479.5054      11.858         11.858         11.858         1667.379     
     94600   823.85147     -19452.661      6.7089431     -19445.952     -6024.2448      11.858         11.858         11.858         1667.379     
     94700   756.0917      -19451.969      6.157149      -19445.812     -5033.1932      11.858         11.858         11.858         1667.379     
     94800   852.38789     -19452.521      6.9413263     -19445.58       1316.6302      11.858         11.858         11.858         1667.379     
     94900   831.14386     -19452.04       6.7683279     -19445.272     -5650.2285      11.858         11.858         11.858         1667.379     
     95000   926.99992     -19452.483      7.5489211     -19444.935     -4176.528       11.858         11.858         11.858         1667.379     
     95100   792.17367     -19451.029      6.4509784     -19444.578     -508.31627      11.858         11.858         11.858         1667.379     
     95200   761.14311     -19450.451      6.1982846     -19444.253     -7297.2234      11.858         11.858         11.858         1667.379     
     95300   936.94286     -19451.615      7.6298903     -19443.985     -4080.266       11.858         11.858         11.858         1667.379     
     95400   924.99907     -19451.317      7.5326274     -19443.784     -3001.7922      11.858         11.858         11.858         1667.379     
     95500   992.75152     -19451.718      8.084362      -19443.633     -1780.8882      11.858         11.858         11.858         1667.379     
     95600   937.71563     -19451.198      7.6361832     -19443.561     -11949.585      11.858         11.858         11.858         1667.379     
     95700   987.22189     -19451.56       8.039332      -19443.521     -5213.0371      11.858         11.858         11.858         1667.379     
     95800   986.64193     -19451.577      8.0346092     -19443.543      1412.5552      11.858         11.858         11.858         1667.379     
     95900   1022.9302     -19451.946      8.3301186     -19443.616     -6633.9044      11.858         11.858         11.858         1667.379     
     96000   910.53769     -19451.151      7.4148627     -19443.736     -6174.6619      11.858         11.858         11.858         1667.379     
     96100   848.41458     -19450.775      6.90897       -19443.866     -6518.6554      11.858         11.858         11.858         1667.379     
     96200   797.69393     -19450.48       6.4959321     -19443.985     -9842.1977      11.858         11.858         11.858         1667.379     
     96300   860.24149     -19451.09       7.0052812     -19444.085     -2525.1145      11.858         11.858         11.858         1667.379     
     96400   858.16898     -19451.167      6.988404      -19444.179     -4616.7142      11.858         11.858         11.858         1667.379     
     96500   929.03813     -19451.843      7.565519      -19444.277     -7005.3257      11.858         11.858         11.858         1667.379     
     96600   888.58522     -19451.633      7.2360952     -19444.397     -6066.7874      11.858         11.858         11.858         1667.379     
     96700   877.26006     -19451.689      7.14387       -19444.545     -53.716921      11.858         11.858         11.858         1667.379     
     96800   827.1984      -19451.475      6.7361985     -19444.739      1901.6208      11.858         11.858         11.858         1667.379     
     96900   891.05479     -19452.222      7.2562059     -19444.966     -9622.6373      11.858         11.858         11.858         1667.379     
     97000   859.19283     -19452.261      6.9967416     -19445.264     -561.87052      11.858         11.858         11.858         1667.379     
     97100   805.50655     -19452.116      6.5595533     -19445.556     -4407.0329      11.858         11.858         11.858         1667.379     
     97200   773.15237     -19452.126      6.2960806     -19445.83      -4921.9954      11.858         11.858         11.858         1667.379     
     97300   784.78351     -19452.444      6.3907975     -19446.054     -2155.8939      11.858         11.858         11.858         1667.379     
     97400   696.70137     -19451.886      5.6735103     -19446.213     -1913.2122      11.858         11.858         11.858         1667.379     
     97500   719.12201     -19452.152      5.8560903     -19446.296     -8302.5366      11.858         11.858         11.858         1667.379     
     97600   867.4482      -19453.375      7.0639683     -19446.311     -4736.1529      11.858         11.858         11.858         1667.379     
     97700   677.65593     -19451.78       5.5184159     -19446.262     -5593.9423      11.858         11.858         11.858         1667.379     
     97800   856.92324     -19453.094      6.9782594     -19446.115     -709.16893      11.858         11.858         11.858         1667.379     
     97900   895.81006     -19453.184      7.2949299     -19445.889     -5696.961       11.858         11.858         11.858         1667.379     
     98000   756.10858     -19451.751      6.1572864     -19445.594     -3069.3065      11.858         11.858         11.858         1667.379     
     98100   907.3225      -19452.577      7.3886802     -19445.189     -5921.9133      11.858         11.858         11.858         1667.379     
     98200   930.51934     -19452.314      7.5775811     -19444.737     -5884.7968      11.858         11.858         11.858         1667.379     
     98300   876.2457      -19451.53       7.1356098     -19444.395     -9648.3245      11.858         11.858         11.858         1667.379     
     98400   862.34756     -19451.124      7.0224317     -19444.101     -6185.371       11.858         11.858         11.858         1667.379     
     98500   883.05938     -19451.062      7.1910961     -19443.871      501.02417      11.858         11.858         11.858         1667.379     
     98600   902.80918     -19451.085      7.3519265     -19443.733     -1591.0889      11.858         11.858         11.858         1667.379     
     98700   968.01526     -19451.573      7.8829249     -19443.69       623.04564      11.858         11.858         11.858         1667.379     
     98800   852.98138     -19450.649      6.9461593     -19443.702      55.346363      11.858         11.858         11.858         1667.379     
     98900   967.60497     -19451.595      7.8795838     -19443.715     -2354.8608      11.858         11.858         11.858         1667.379     
     99000   989.2481      -19451.805      8.0558322     -19443.749     -1409.0658      11.858         11.858         11.858         1667.379     
     99100   765.9671      -19450.051      6.2375681     -19443.813     -233.58478      11.858         11.858         11.858         1667.379     
     99200   898.57416     -19451.203      7.317439      -19443.885     -6176.9243      11.858         11.858         11.858         1667.379     
     99300   883.34541     -19451.139      7.1934254     -19443.946      1438.0446      11.858         11.858         11.858         1667.379     
     99400   913.73427     -19451.45       7.4408937     -19444.009     -3875.9335      11.858         11.858         11.858         1667.379     
     99500   723.47304     -19449.965      5.8915225     -19444.073     -4781.1486      11.858         11.858         11.858         1667.379     
     99600   824.50987     -19450.779      6.7143047     -19444.065     -5580.4143      11.858         11.858         11.858         1667.379     
     99700   863.95892     -19451.045      7.0355536     -19444.009     -3537.7797      11.858         11.858         11.858         1667.379     
     99800   875.97666     -19451.032      7.1334188     -19443.898     -5140.3407      11.858         11.858         11.858         1667.379     
     99900   945.15365     -19451.417      7.696754      -19443.72      -863.31929      11.858         11.858         11.858         1667.379     
    100000   894.47008     -19450.743      7.2840179     -19443.459     -4740.3698      11.858         11.858         11.858         1667.379     
Loop time of 1153.56 on 1 procs for 100000 steps with 64 atoms

Performance: 7.490 ns/day, 3.204 hours/ns, 86.688 timesteps/s
1094.4% CPU use with 1 MPI tasks x 1 OpenMP threads

MPI task timing breakdown:
Section |  min time  |  avg time  |  max time  |%varavg| %total
---------------------------------------------------------------
Pair    | 1148.8     | 1148.8     | 1148.8     |   0.0 | 99.59
Neigh   | 1.1062     | 1.1062     | 1.1062     |   0.0 |  0.10
Comm    | 1.1219     | 1.1219     | 1.1219     |   0.0 |  0.10
Output  | 0.14632    | 0.14632    | 0.14632    |   0.0 |  0.01
Modify  | 1.8846     | 1.8846     | 1.8846     |   0.0 |  0.16
Other   |            | 0.4763     |            |       |  0.04

Nlocal:             64 ave          64 max          64 min
Histogram: 1 0 0 0 0 0 0 0 0 0
Nghost:            995 ave         995 max         995 min
Histogram: 1 0 0 0 0 0 0 0 0 0
Neighs:           3688 ave        3688 max        3688 min
Histogram: 1 0 0 0 0 0 0 0 0 0
FullNghs:         7376 ave        7376 max        7376 min
Histogram: 1 0 0 0 0 0 0 0 0 0

Total # of neighbors = 7376
Ave neighs/atom = 115.25
Neighbor list builds = 2749
Dangerous builds = 0
Total wall time: 0:19:16
