3.026534809582368091e+00 1.772916772960215326e+00 4.384499328358534065e+00 3.482140304240423312e+00 5.225783059907636030e+00 2.071006709375251997e+00 8.883967200671080144e-01 3.912887957807475559e+00 4.556832081649554667e+00 1.477854362664179577e+00 1.178144134137343180e+01 8.984933240541091992e-01 9.593895345234164651e+00 4.400071998826534880e+00 1.303817839607158469e+00 5.338231176280649137e+00 1.108329451440934577e+01 4.468452460832543771e+00 7.517900153808914965e+00 3.188863548426387862e+00 1.088528046688232287e+01 6.213129160101755311e+00 2.284675248756277366e+00 2.275468219991276797e+00 1.088162925049332408e+01 1.128581250664037228e+01 4.031290045900489893e+00 8.726359197718061012e+00 1.906709837445231814e+00 5.020808488200610320e+00 5.683965100010691662e-01 5.960101352044724798e+00 1.128742898302837361e+01 4.573642411862556045e+00 1.503982192171182675e+00 1.092958766093032885e+01 6.472482694432787120e+00 6.475957664579786943e+00 2.254730839755274108e+00 2.681227806337326047e+00 9.876031400628200174e+00 5.625366772988684261e+00 1.052227445347427981e+01 6.888695685098837451e+00 4.538963114600552018e+00 7.319447864055890207e+00 1.081770065143331649e+01 1.076740541180030952e+01 9.981584740604212413e+00 8.369741844668018516e+00 1.347581798763163974e+00 8.543199286946039805e+00 9.023393491667096811e+00 5.956527978237724952e+00 2.329976626130283446e-01 2.281808722825277691e+00 1.060686192124929050e+01 5.361434563765651973e+00 4.663687573274566844e+00 5.880656507958715196e+00 2.780462702328338143e+00 2.830490076052343706e+00 8.648515955155051671e+00 7.313850927180889361e-01 7.916665345070962312e-01 7.224171206932878064e+00 9.319766446351133382e+00 4.633428089492563906e+00 7.156469731835869652e+00 7.058144881318858310e+00 1.662859987986202048e+00 7.200292143148875113e+00 9.467615802927150881e+00 3.145501612760382426e-01 9.432018897051146489e-01 3.404577361900413823e-01 9.503448788335154163e+00 8.845364371326073893e+00 2.154196412346261802e+00 5.798207953650705626e+00 7.998041548741971596e+00 3.661800023985445574e+00 1.105838157610434536e+01 8.951792850288086356e+00 5.696669872351692199e+00 7.462130723325906878e+00 6.736860386939818923e+00 4.374323581498532398e+00 7.939392031027965757e+00 1.063126036247529349e+01 9.454943812100149003e+00 7.366660782282894893e+00 8.878003522999080133e+00 9.812521362029194449e+00 1.176623840135543198e+01 9.593727885131166033e+00 2.408294842439292704e+00 3.440260428840418161e+00 3.161179919405384009e+00 4.709645132237572973e+00 5.622135335029683212e+00 3.990420891486484933e+00 5.028315141983610737e+00 1.615663302675196533e+00 4.697349808471571464e+00 2.012902823082244552e+00 2.403266567874292381e+00 6.744454116173820069e+00 1.133781183460737907e+01 5.353803376510651191e+00 5.737404910494697141e+00 5.728862209723696530e+00 3.703492207437450112e+00 7.024217888470853932e-01 8.407326685901020724e+00 2.880412134603349994e+00 2.434118103985295711e+00 1.028569823397025118e+01 2.525803260283306706e+00 1.127468038432036934e+01 8.495778639114032416e+00 7.003620755294852174e+00 2.736956778824333192e+00 1.120599054501436243e+01 9.110734357701107122e-02 2.065046616050250972e+00 4.155580811120505480e+00 7.018913968900853284e+00 8.187623822740995871e-01 2.057507280246249959e+00 1.041484358407826427e+01 7.605828624875925037e+00 2.850740738787346906e+00 1.122941387592436691e+01 4.039679940246490908e+00 5.114975998281622083e+00 9.467479755976151878e+00 6.213119305161755257e+00 6.798659661942825672e+00 7.554044801450918722e-01 1.179935414325543341e+01 1.124473993364636826e+01 6.605732213539804221e+00 7.913310404340963000e-01 1.099855896820033685e+01 8.953144972494088805e+00 4.578235726890556023e+00 2.662991908750323766e+00 1.246864841411151614e+00 1.145763415801139296e+01 1.503417619749182643e+00 4.243605272275516427e+00 1.000536909262321750e+01 4.583445366865557702e+00 1.262982325029153419e+00 8.802131430246070920e+00 4.170598865947507505e+00 5.643220828949686130e+00 7.136706957969868093e+00 7.536027830134915284e+00 3.258039098386396049e+00 6.137768963930746224e+00 8.176130623485994064e+00 5.098271779110619129e-01 8.641453398902051219e+00 1.057969521845428673e+01 1.543349839691187553e+00 5.859115215732713544e+00 5.435790352100660500e-02 2.073497198860252133e-01 9.590140525509166736e+00 1.539907239987187149e+00 7.834120652321953315e+00 9.749411523651186684e+00 5.136633271357624153e+00 9.583423157725166064e+00 9.813354501415194164e+00 9.503339684486155292e+00 1.009229160663322666e+01 1.140886593260538717e+01 8.149570264048991319e+00 1.098069961971533459e+01 4.157637342960505578e+00 1.035823935658526018e+01 9.235945209073124218e+00 8.351581174405014352e+00 9.093998552936106705e+00 5.624676904985682846e+00 9.581434201165166087e+00 8.145438717766991132e+00 7.244368556786881186e+00 6.583828949059800095e+00
3.035009309310368941e+00 1.769089912969215250e+00 4.390679005633534082e+00 3.488137211124424208e+00 5.218916357634634906e+00 2.082476205789252965e+00 8.674976584851055161e-01 3.918335470696476364e+00 4.553447750734552990e+00 1.499734356009182257e+00 1.175827329460942927e+01 9.008170693111094973e-01 9.602213464704169255e+00 4.416309084222536541e+00 1.291648284956157022e+00 5.340343565118649494e+00 1.108073870981134768e+01 4.471094393868543904e+00 7.504904970140912290e+00 3.185712916259387129e+00 1.088568115059232433e+01 6.224843584828756882e+00 2.294040922189279019e+00 2.259270802649274934e+00 1.090242607252732476e+01 1.129018717857937126e+01 4.032534813539490059e+00 8.729457774536061976e+00 1.898577029058230892e+00 5.027134356560611472e+00 5.719280292960695622e-01 5.976855650668726483e+00 1.127963872441137205e+01 4.585414173073556476e+00 1.491493460117181424e+00 1.092020430505132644e+01 6.469262635043786958e+00 6.467126110475786227e+00 2.242767617620272880e+00 2.686481452462326835e+00 9.884070156477200442e+00 5.621641080570683791e+00 1.051855272176827860e+01 6.882424505676836723e+00 4.519028225470548499e+00 7.320817231696890026e+00 1.081067473084631381e+01 1.077932188699731064e+01 9.981016099293213983e+00 8.393391626586021559e+00 1.347304181613163898e+00 8.537533435605039855e+00 9.029078594041097361e+00 5.960943242239724604e+00 2.393646009830291133e-01 2.283957146196277765e+00 1.059500959773528983e+01 5.372579923191653783e+00 4.675696867078568353e+00 5.862285124842712136e+00 2.785406547851339010e+00 2.821652762256342761e+00 8.647519034737051413e+00 7.390462246630897791e-01 8.013088431370973819e-01 7.218567248416877469e+00 9.315863088071131060e+00 4.638620986962563641e+00 7.144327054637868990e+00 7.068567092786858908e+00 1.666151289972202632e+00 7.202620994310875879e+00 9.468220882957151474e+00 3.258076538930395616e-01 9.399258024231141873e-01 3.516807606270427322e-01 9.501222289259153797e+00 8.858768537143077992e+00 2.154097116431262116e+00 5.806219651008706073e+00 7.997480232763972019e+00 3.644852770050443169e+00 1.107991134696534630e+01 8.940962903237087644e+00 5.704007768807693779e+00 7.447217308460905016e+00 6.746656089923821042e+00 4.363404912884530695e+00 7.934755753562964919e+00 1.061606828753429177e+01 9.445034818897147133e+00 7.365249751588895499e+00 8.890253845500081908e+00 9.790663536667191025e+00 1.176527746742143066e+01 9.611092598278169419e+00 2.413842588945293688e+00 3.436747687675417939e+00 3.166173890608384944e+00 4.705182216563572162e+00 5.619764052151682954e+00 3.984704953098483937e+00 5.029968164705612033e+00 1.609708324726195849e+00 4.693158038708570068e+00 2.013648689317244500e+00 2.402919687813292349e+00 6.744363354016820189e+00 1.133320279356537874e+01 5.356877702719651246e+00 5.733642718202696997e+00 5.727363752118696638e+00 3.701644758181450001e+00 6.986639061890849156e-01 8.409931563381022102e+00 2.884352800211350321e+00 2.433861727956295962e+00 1.028417077752025044e+01 2.530287546923307929e+00 1.128028142120437138e+01 8.494712121827031837e+00 7.000779084144851616e+00 2.735328006989332206e+00 1.121129401481736210e+01 9.422741363801144521e-02 2.071187297251251724e+00 4.155878197014505560e+00 7.014225155407852519e+00 8.126409159810986660e-01 2.054112504311250031e+00 1.040638607676726579e+01 7.608474864544924721e+00 2.859559530978347919e+00 1.122431980122036421e+01 4.039772811448490764e+00 5.110450283569622165e+00 9.469578299516150821e+00 6.219611658056757086e+00 6.798073452496826263e+00 7.612848951690925903e-01 1.180503263374943579e+01 1.124601742036136542e+01 6.607108118764802640e+00 7.915054172220962192e-01 1.100699585383833679e+01 8.954276211342088843e+00 4.575712253776556437e+00 2.662473922653323832e+00 1.251286544674152124e+00 1.145115588160839337e+01 1.504872970286182943e+00 4.238589393166515507e+00 1.000973006869221749e+01 4.577186264890556799e+00 1.260841863887153247e+00 8.795613705026068985e+00 4.165840730741506626e+00 5.645519323358686670e+00 7.130941070239867230e+00 7.537594382565916185e+00 3.260134369310396352e+00 6.139089888734746481e+00 8.165933377794992509e+00 5.126508663330624493e-01 8.641977196417050422e+00 1.057594183576928515e+01 1.540631301124187447e+00 5.869771921295713568e+00 5.636090261800685147e-02 2.080904176500252833e-01 9.587106590925166927e+00 1.542939379483187601e+00 7.826862782459951262e+00 9.753610933302185870e+00 5.138533123176625139e+00 9.582573358033164013e+00 9.821861474833193384e+00 9.500746064992155127e+00 1.009252914755022701e+01 1.139917459319938509e+01 8.150676935733990547e+00 1.097777034925233508e+01 4.157429518727504991e+00 1.035376259748025873e+01 9.233525147421122625e+00 8.358144093281016040e+00 9.098898973654106825e+00 5.629824720629684975e+00 9.578401269823165975e+00 8.138577982001988786e+00 7.250678428062880876e+00 6.590712150941801184e+00
3.042144925312369796e+00 1.764532742087214556e+00 4.397246678582535040e+00 3.494551284574424876e+00 5.211849806455632894e+00 2.093895755424254546e+00 8.459382436371029046e-01 3.923722775862477086e+00 4.551065092157553060e+00 1.521116880813184746e+00 1.173508893030042621e+01 9.036600553671099156e-01 9.610906742023168192e+00 4.432846585579539145e+00 1.279269008637155647e+00 5.342705417120649614e+00 1.107832800494934666e+01 4.473967084631543578e+00 7.492117527251910047e+00 3.182064474026386591e+00 1.088660598691432391e+01 6.236578629856758482e+00 2.302920527986279886e+00 2.243730682694272449e+00 1.092238289389632655e+01 1.129398634228937226e+01 4.035320835969490538e+00 8.732189119809060429e+00 1.889659703407229552e+00 5.031318621362611765e+00 5.777302574980701655e-01 5.993118946561728499e+00 1.126884536028337003e+01 4.599522733982559508e+00 1.479330366389179918e+00 1.091161934677632672e+01 6.464544590897784992e+00 6.457842873165785313e+00 2.230898529616271553e+00 2.692236736737327440e+00 9.891158283804202256e+00 5.618313843134682628e+00 1.051385451184727948e+01 6.876473660481837058e+00 4.498401191581546499e+00 7.321948032769889814e+00 1.080285400940631391e+01 1.079037139405631329e+01 9.980013994296212942e+00 8.417338544163023073e+00 1.347165501377163954e+00 8.533054551033037782e+00 9.038649342992099989e+00 5.963725910065725166e+00 2.484424066820302146e-01 2.285728259083278147e+00 1.058222881647228597e+01 5.385089562608654568e+00 4.685821910703569237e+00 5.842136326746710573e+00 2.791030251801339457e+00 2.812656213741342004e+00 8.647603030996050322e+00 7.455555738970905955e-01 8.097119066460984893e-01 7.213412419744877013e+00 9.312071785894133313e+00 4.644139196622564469e+00 7.132269497761868138e+00 7.077432756026859728e+00 1.667235570715202675e+00 7.206336935805875754e+00 9.467537595033151732e+00 3.375368769540409986e-01 9.359147904191138512e-01 3.654566227600444250e-01 9.499603878170153948e+00 8.872955279659079153e+00 2.153049108674261358e+00 5.814713120769706478e+00 7.997794615831972820e+00 3.628298057843441615e+00 1.110124877329334936e+01 8.930217541969085460e+00 5.711525175450694825e+00 7.432238612254903565e+00 6.756404269509821425e+00 4.350964394791529521e+00 7.928356083623964601e+00 1.060194048972728886e+01 9.435458329848145809e+00 7.366841853847895472e+00 8.901123896834082672e+00 9.770311052217188319e+00 1.176326380015743034e+01 9.629208647316170655e+00 2.419253239139294021e+00 3.433262622020417432e+00 3.170930703321385824e+00 4.700937536660570792e+00 5.617534638660681701e+00 3.978862633164483853e+00 5.032199432174611964e+00 1.603777346186195052e+00 4.688959342566570321e+00 2.014427503566244670e+00 2.402782234685292284e+00 6.743932591130819887e+00 1.132866701856437608e+01 5.359758422013651824e+00 5.730023980716697274e+00 5.725750804082696099e+00 3.700012900540449845e+00 6.946571297480844676e-01 8.412675895929023540e+00 2.888233856380351128e+00 2.433774390576296298e+00 1.028195709934525048e+01 2.534932258768308078e+00 1.128618854998937238e+01 8.493796721670031857e+00 6.997935950496851021e+00 2.733690909690332571e+00 1.121699847522036464e+01 9.739055242701183390e-02 2.077206321258252775e+00 4.156241526707505685e+00 7.009549944512852626e+00 8.065153459380980383e-01 2.050564985932249673e+00 1.039802392399026409e+01 7.611064564205925365e+00 2.868281534841348623e+00 1.121932884658436258e+01 4.039561550926491051e+00 5.105891540816620555e+00 9.471772355851150849e+00 6.226002155930756565e+00 6.797457739250827302e+00 7.672763185140932807e-01 1.181084534302043565e+01 1.124692528046036699e+01 6.608524200001803628e+00 7.921951139770962991e-01 1.101550687814733998e+01 8.955579692150088533e+00 4.573178009708557035e+00 2.661558337575323563e+00 1.255651432710152671e+00 1.144486596870939010e+01 1.506368038398183229e+00 4.233590775269514772e+00 1.001397818814121621e+01 4.571044491518556185e+00 1.258865927190153222e+00 8.788861681101069578e+00 4.160937052112505086e+00 5.648024044661686283e+00 7.125610932673867026e+00 7.539160576686916748e+00 3.262927475236396813e+00 6.140351174384745647e+00 8.155396923881991000e+00 5.155348992540625952e-01 8.642388985102051890e+00 1.057254968019728381e+01 1.537785339163187048e+00 5.880482862133715294e+00 5.856228873900711646e-02 2.088772321540253996e-01 9.583997556810166074e+00 1.546089984092188008e+00 7.819366931326951153e+00 9.757849074250186661e+00 5.140726701525624165e+00 9.582073577333165559e+00 9.830274789438195882e+00 9.498031478051155219e+00 1.009281498376022768e+01 1.138963924665938521e+01 8.151709730648990515e+00 1.097491174955833415e+01 4.157307648409505063e+00 1.034872420390125924e+01 9.231131833798123409e+00 8.364421627570015616e+00 9.103634905520106457e+00 5.634172607394686061e+00 9.575578672717163897e+00 8.131478764480990051e+00 7.256266735511881727e+00 6.597817308164802164e+00
3.047859704735370379e+00 1.759290518171213957e+00 4.404181633685535502e+00 3.501336633991425806e+00 5.204598699093633485e+00 2.105179099173255963e+00 8.238499227471002273e-01 3.928986503207477998e+00 4.549570702996553528e+00 1.542011139156187483e+00 1.171195363863242456e+01 9.070006382801102385e-01 9.619941164837170433e+00 4.449633716764540559e+00 1.266703983882153883e+00 5.345332623930650229e+00 1.107605772867534810e+01 4.477071578209544711e+00 7.479564814492909441e+00 3.177928093234386520e+00 1.088805564359232392e+01 6.248329188833759318e+00 2.311241721009281047e+00 2.228908379590270883e+00 1.094149652724733102e+01 1.129718085659037285e+01 4.039685932579491379e+00 8.734488126306061417e+00 1.879984009138228718e+00 5.033356542262612088e+00 5.857380811340712201e-01 6.008915654179730836e+00 1.125513603466536772e+01 4.615788638653561371e+00 1.467458753316178477e+00 1.090390100162632514e+01 6.458375701908785516e+00 6.448128398378783821e+00 2.219124474477269349e+00 2.698479681459328372e+00 9.897231990255203726e+00 5.615490475819682636e+00 1.050820272920427634e+01 6.870908278697835492e+00 4.477085687961543492e+00 7.322767217202890144e+00 1.079427571562431254e+01 1.080057774289631212e+01 9.978617089882213520e+00 8.441493950981026728e+00 1.347175132863163594e+00 8.529744761184037571e+00 9.052009874354101981e+00 5.964906824547725250e+00 2.599685791280315628e-01 2.287139262190278188e+00 1.056862888316928384e+01 5.398859238160656382e+00 4.694128728805570638e+00 5.820398466253707603e+00 2.797297430034340060e+00 2.803548235807340916e+00 8.648776139477051927e+00 7.508335898750913007e-01 8.167936219170993661e-01 7.208745345125876725e+00 9.308402137601133219e+00 4.649993585938564600e+00 7.120316178735865975e+00 7.084714556549861264e+00 1.666177910620202596e+00 7.211369188607876346e+00 9.465670530314151065e+00 3.497530639330425628e-01 9.312403086191132218e-01 3.814145635720463390e-01 9.498574645897154056e+00 8.887829801708079458e+00 2.151057690033261416e+00 5.823664586217708106e+00 7.998985611955972352e+00 3.612215200484439226e+00 1.112226558039835211e+01 8.919634942797085131e+00 5.719174707935694713e+00 7.417349764127901146e+00 6.766086216734822578e+00 4.337003987325526388e+00 7.920210537307962539e+00 1.058886699867328751e+01 9.426230646201146257e+00 7.371632532578896502e+00 8.910551018946083701e+00 9.751625237643184008e+00 1.176025495130043019e+01 9.648027223176171674e+00 2.424506642026294845e+00 3.429805762131417080e+00 3.175469342249385818e+00 4.696917301591571281e+00 5.615456335720683256e+00 3.972894617754483271e+00 5.035025660490611621e+00 1.597872791166194295e+00 4.684757556083569696e+00 2.015248691417244498e+00 2.402865618756292232e+00 6.743159781468819780e+00 1.132419754083737651e+01 5.362453424093652110e+00 5.726548515535695216e+00 5.724019273306696576e+00 3.698611127116449460e+00 6.903931349750840329e-01 8.415569882337022634e+00 2.892066156152351297e+00 2.433850199809295844e+00 1.027910455187624983e+01 2.539725132452308465e+00 1.129238329269337271e+01 8.493026303524032983e+00 6.995091929677850651e+00 2.732042494299331548e+00 1.122308861790636492e+01 1.005963041670122210e-01 2.083080083586253295e+00 4.156669883457505321e+00 7.004884422451851833e+00 8.003867068930973216e-01 2.046865587957248600e+00 1.038975378133226357e+01 7.613583436161925455e+00 2.876902028362350094e+00 1.121445099284636271e+01 4.039030135933491472e+00 5.101308039431620145e+00 9.474040854787151744e+00 6.232295295258757584e+00 6.796819776600826479e+00 7.733622107140940560e-01 1.181678194686943684e+01 1.124746741396736738e+01 6.609981022218804014e+00 7.933900600960963612e-01 1.102408812880834077e+01 8.957041882409088274e+00 4.570631587397556039e+00 2.660272517873323750e+00 1.259955497667153201e+00 1.143876346245839137e+01 1.507905738109183380e+00 4.228617808784513876e+00 1.001810805918821856e+01 4.565032779309555089e+00 1.257062117291152692e+00 8.781871827402067510e+00 4.155912194842505514e+00 5.650711354386687368e+00 7.120691185389865119e+00 7.540726690577917779e+00 3.266409759632397325e+00 6.141545529368746870e+00 8.144536896267990045e+00 5.184691852700630266e-01 8.642701767553049308e+00 1.056952604402528628e+01 1.534812986820186520e+00 5.891249807009716122e+00 6.092979865300741232e-02 2.097052599220254887e-01 9.580813179700164994e+00 1.549363469400188542e+00 7.811633776619950176e+00 9.762126431026189266e+00 5.143200489451626112e+00 9.581936399147163996e+00 9.838593536349195645e+00 9.495198310898155469e+00 1.009315064944522788e+01 1.138027349950138323e+01 8.152668408909990561e+00 1.097212345612433460e+01 4.157272930900504981e+00 1.034318713204925722e+01 9.228772468184121891e+00 8.370427262021017611e+00 9.108203595046106216e+00 5.637682771992684749e+00 9.572978200181163189e+00 8.124146409046987927e+00 7.261147681201882698e+00 6.605136102079803173e+00
3.052091778989370674e+00 1.753409457766213153e+00 4.411465452312536506e+00 3.508440901226426600e+00 5.197173529819631099e+00 2.116236432606257711e+00 8.013677028040975259e-01 3.934060428663478159e+00 4.548851893533552015e+00 1.562427596925190176e+00 1.168893462099442182e+01 9.108174652791107828e-01 9.629286183012171207e+00 4.466623615077543796e+00 1.253973434487152483e+00 5.348238476075651171e+00 1.107392326091434676e+01 4.480408638748544448e+00 7.467277635645907630e+00 3.173317188820385493e+00 1.089002747546132532e+01 6.260089037314760851e+00 2.318937557414281869e+00 2.214860788825269378e+00 1.095976763002033216e+01 1.129975067279937306e+01 4.045647590363492085e+00 8.736293756517062192e+00 1.869583120204227455e+00 5.033257558659611774e+00 5.958300396720723757e-01 6.024291437613732647e+00 1.123866444557736699e+01 4.634011305131562786e+00 1.455845274287177027e+00 1.089711181906132431e+01 6.450814045923784157e+00 6.438005825435782370e+00 2.207448873026268021e+00 2.705196977333328867e+00 9.902233300037204700e+00 5.613267891367682338e+00 1.050162381057527483e+01 6.865781138678834772e+00 4.455093819339541739e+00 7.323199708208890435e+00 1.078498144916231105e+01 1.080996575642431523e+01 9.976862702844211839e+00 8.465771901806029121e+00 1.347343491201163701e+00 8.527567690738035111e+00 9.068981515996103582e+00 5.964545417782725067e+00 2.736509906950332360e-01 2.288209221477278010e+00 1.055433748617628176e+01 5.413773692367659152e+00 4.700689799954570702e+00 5.797280335427704934e+00 2.804166066291341242e+00 2.794376627186339945e+00 8.651031049912051074e+00 7.548115199700917710e-01 8.224874640030999107e-01 7.204598388356875382e+00 9.304861542748131598e+00 4.656195292796565965e+00 7.108487974488864047e+00 7.090389679283861213e+00 1.663095921769202290e+00 7.217605527087877171e+00 9.462733495439151099e+00 3.624721433710440532e-01 9.259803990621126024e-01 3.991633723940485878e-01 9.498115493266155340e+00 8.903294577160083989e+00 2.148136515268260993e+00 5.833048191483709566e+00 8.001046296510972766e+00 3.596664672475437197e+00 1.114284387451735547e+01 8.909284490771083753e+00 5.726909854115696419e+00 7.402691115712900505e+00 6.775687189143823730e+00 4.321547881416526238e+00 7.910378171370961553e+00 1.057681416642228633e+01 9.417337167791144381e+00 7.379711284367897584e+00 8.918511771560083901e+00 9.734717297699182481e+00 1.175632084018842782e+01 9.667475293634174349e+00 2.429582953821295632e+00 3.426377297372416475e+00 3.179808467300386798e+00 4.693127660918570143e+00 5.613539124762683130e+00 3.966802017719482265e+00 5.038459322808612306e+00 1.591997327368193549e+00 4.680555634602568738e+00 2.016120776297245065e+00 2.403179225049292267e+00 6.742046088021819372e+00 1.131978632119637673e+01 5.364972981666651819e+00 5.723215391290695564e+00 5.722164932416696104e+00 3.697452920680449839e+00 6.858648144960833859e-01 8.418622594425023919e+00 2.895859447893352367e+00 2.434083901505296410e+00 1.027566552856425020e+01 2.544652622380309648e+00 1.129884416147437243e+01 8.492392599887031324e+00 6.992247292618849919e+00 2.730379576269332365e+00 1.122954639886936690e+01 1.038432575140126185e-01 2.088787690945253850e+00 4.157162083666505303e+00 7.000224507918851202e+00 7.942571703680966211e-01 2.043016706922248460e+00 1.038157266535126233e+01 7.616017307821926430e+00 2.885416293213350691e+00 1.120969485470436311e+01 4.038164003557491277e+00 5.096707639950619040e+00 9.476364998031151288e+00 6.238494941571758545e+00 6.796167708763825921e+00 7.795246133220947726e-01 1.182283213251943899e+01 1.124765789835236518e+01 6.611474211303804083e+00 7.950690113780967128e-01 1.103273548533134196e+01 8.958649815246088721e+00 4.568071797329555928e+00 2.658647658078322706e+00 1.264194191946153678e+00 1.143284605152239131e+01 1.509489835518183609e+00 4.223679108630513213e+00 1.002211377367821932e+01 4.559164884795554151e+00 1.255438202341152554e+00 8.774642550475068248e+00 4.150792123002504219e+00 5.653556606870687062e+00 7.116153935722865143e+00 7.542292385549917100e+00 3.270562710467397771e+00 6.142669950693746550e+00 8.133375976928988393e+00 5.214394846370633552e-01 8.642934351930049885e+00 1.056687537651528430e+01 1.531715402616186328e+00 5.902073303411716765e+00 6.343522314700769660e-02 2.105694688560256211e-01 9.577553549374163921e+00 1.552765040169188815e+00 7.803664540742949463e+00 9.766442833902186038e+00 5.145939753436625352e+00 9.582164514653165099e+00 9.846821372291197250e+00 9.492249005994152000e+00 1.009353671078322812e+01 1.137109146293538231e+01 8.153552797402991104e+00 1.096940524444933196e+01 4.157326594484505478e+00 1.033721972759725816e+01 9.226459173344123244e+00 8.376174104340018189e+00 9.112606118562107227e+00 5.640333433330686042e+00 9.570605130724162635e+00 8.116590453052987542e+00 7.265351094052883596e+00 6.612654592244804341e+00
3.054802070104371214e+00 1.746935884957212526e+00 4.419082489611537490e+00 3.515805343144427386e+00 5.189579880379630694e+00 2.126974500284258607e+00 7.786277930150945492e-01 3.938876308307478702e+00 4.548798423798553259e+00 1.582377172591192593e+00 1.166610037607641992e+01 9.150900603731112470e-01 9.638914404853172968e+00 4.483773363454544025e+00 1.241093951008150897e+00 5.351433491214650395e+00 1.107192011254434583e+01 4.483978603485545555e+00 7.455290429890905735e+00 3.168248799415385175e+00 1.089251541064432516e+01 6.271850139908763389e+00 2.325947775862283073e+00 2.201639948320267770e+00 1.097720284073033348e+01 1.130168528432237451e+01 4.053202009615493040e+00 8.737551590681063018e+00 1.858496142652225736e+00 5.031045268923612035e+00 6.078360725360738570e-01 6.039304644575734571e+00 1.121964277640336505e+01 4.653974462442565851e+00 1.444458719837175664e+00 1.089130440378132292e+01 6.441926984661783706e+00 6.427500576175781966e+00 2.195877334541266990e+00 2.712376297453329865e+00 9.906111727613204465e+00 5.611731646724682498e+00 1.049414796700627583e+01 6.861132893141833833e+00 4.432446422392539276e+00 7.323169396930889974e+00 1.077501615125131096e+01 1.081856041793431444e+01 9.974786799305213947e+00 8.490089284122031899e+00 1.347681984491163831e+00 8.526471255253037285e+00 9.089315629718104361e+00 5.962725717913724743e+00 2.891817199660351445e-01 2.288956722956278611e+00 1.053949516935528230e+01 5.429713072868660895e+00 4.705579413041571790e+00 5.773003559345701419e+00 2.811588127216341437e+00 2.785189599016338668e+00 8.654345411285051526e+00 7.574337360000920061e-01 8.267449329801004332e-01 7.200997236889875808e+00 9.301455221462131107e+00 4.662755581334566912e+00 7.096807549597863307e+00 7.094437297095862682e+00 1.658156126960201648e+00 7.224894013847878327e+00 9.458846564395148704e+00 3.757105533430457056e-01 9.202178173901118807e-01 4.183070838000508829e-01 9.498208602754154128e+00 8.919253768049083320e+00 2.144307532641261282e+00 5.842835574582709413e+00 8.003961860976973597e+00 3.581689932296435508e+00 1.116287434969235726e+01 8.899227370339081844e+00 5.734684527850697044e+00 7.388387710192898084e+00 6.785196176531824719e+00 4.304642136372523353e+00 7.898956168966961400e+00 1.056572856349628609e+01 9.408731982945143457e+00 7.391051217565898668e+00 8.925024077524085442e+00 9.719652595814183726e+00 1.175154468471342817e+01 9.687455706915178766e+00 2.434463026582295964e+00 3.422977057435416359e+00 3.183966001757386977e+00 4.689574712445570448e+00 5.611793678388681705e+00 3.960586586083481464e+00 5.042508154991613090e+00 1.586153946087192734e+00 4.676355631279569103e+00 2.017050960968245210e+00 2.403729885367292152e+00 6.740595928908819978e+00 1.131542431060437615e+01 5.367329625640652857e+00 5.720022943935695103e+00 5.720183564209695426e+00 3.696550499572449411e+00 6.810665944560828633e-01 8.421841934900024640e+00 2.899622312563352011e+00 2.434470899136295774e+00 1.027169475074124882e+01 2.549700281872310015e+00 1.130554762428937288e+01 8.491885503199034346e+00 6.989402098476849901e+00 2.728698808209331528e+00 1.123635165156436599e+01 1.071289299560130304e-01 2.094311438992254359e+00 4.157716688805505711e+00 6.995566073827850673e+00 7.881298988250957649e-01 2.039022217178247942e+00 1.037347808063926102e+01 7.618352331556926593e+00 2.893819535986351887e+00 1.120506741093836212e+01 4.036950470899490107e+00 5.092097818210619131e+00 9.478728237312152416e+00 6.244604337055758236e+00 6.795510577290825971e+00 7.857443474930956295e-01 1.182898580737643890e+01 1.124751942956536865e+01 6.612995741558804319e+00 7.972011891710969467e-01 1.104144454595334324e+01 8.960391115214088487e+00 4.565497710279554866e+00 2.656717531476322947e+00 1.268362282317154310e+00 1.142711048246938965e+01 1.511124857198183680e+00 4.218783722842512240e+00 1.002598903236321881e+01 4.553455660020554241e+00 1.254001953419152215e+00 8.767174479864065617e+00 4.145603114902504771e+00 5.656535222786688522e+00 7.111970146665864689e+00 7.543856808690916793e+00 3.275358931639398286e+00 6.143725373996747230e+00 8.121943611402986818e+00 5.244273655910637322e-01 8.643111481242049976e+00 1.056459901265428414e+01 1.528493907556185860e+00 5.912952444152718812e+00 6.605392420000803788e-02 2.114646341430257148e-01 9.574219049476164756e+00 1.556300624319189252e+00 7.795461469844948255e+00 9.770797135940187061e+00 5.148928205754626397e+00 9.582751663013166166e+00 9.854965682849197606e+00 9.489186043243154955e+00 1.009397259870422658e+01 1.136210791404337961e+01 8.154362807043991523e+00 1.096675711827033339e+01 4.157469817693505654e+00 1.033089305996625562e+01 9.224208824360120573e+00 8.381673983642020431e+00 9.116847274384108246e+00 5.642120602001686080e+00 9.568457931810163686e+00 8.108824196187985223e+00 7.268919852470883569e+00 6.620354027946804720e+00