-8.922663273850000021e-01 -5.565371332540000049e-01 2.951943734710000267e-01 3.284687490800000109e-01 -1.580886518999999879e-01 2.357824915999999840e-02 -5.652644214340000195e-01 -3.239859949999999772e-04 8.011004584869999556e-01 -3.628514442829999798e-01 -5.709394985400000067e-02 3.887691896330000008e-01 2.969375813499999794e-01 2.554322291510000009e-01 -1.707690937859999980e-01 1.663293126819999912e-01 1.076800874909999983e-01 1.650769468670000018e-01 1.328527992159999893e-01 -3.626976534470000013e-01 3.742358659269999777e-01 1.816655488999999873e-02 -2.946490601890000005e-01 4.275872137889999980e-01 -5.988514670319999844e-01 -3.869133250310000105e-01 1.068085556620999910e+00 -2.162643708110000007e-01 -5.774054608980000447e-01 -1.526985283481999911e+00 1.636604863060000081e+00 -3.503909507140000046e-01 -2.171991328584999881e+00 1.790791931782999891e+00 2.583227030790000156e-01 5.244262759050000167e-01 -1.102637683585999895e+00 -3.375424845409999985e-01 6.902505431500000066e-02 3.710835848890000066e-01 -6.349671445629999633e-01 2.068507338009999974e-01 -7.166379297160000439e-01 1.749125110679999873e-01 -4.949251629640000205e-01 -1.212147720890000002e-01 -5.946184019039999491e-01 -6.394961764009999827e-01 -3.405434090230000099e-01 2.790591798459999828e-01 9.394043204400000235e-02 8.523757435030000496e-01 2.799562014799000131e+00 -1.174553189839000034e+00 2.107272258926999875e+00 -2.807770872079999869e-01 -7.296238636930000299e-01 1.043672506310999948e+00 -1.394377691367999939e+00 -1.394076402143999971e+00 5.115821417870000110e-01 -1.491867736989999915e-01 7.604800991639999452e-01 -7.654028590189999592e-01 -8.231457912949999844e-01 2.912359100199999884e-01 7.208185029399999388e-02 2.264643691269999926e-01 4.863266861300000188e-02 -1.095393250661000017e+00 -1.596091652906999947e+00 1.019156717059999995e+00 -9.932716753839999635e-01 3.289891646659999780e-01 -5.740502565920000411e-01 2.075624802835999816e+00 4.494104248460000228e-01 6.257073961819999974e-01 -6.803281977899999777e-01 3.623798650989999981e-01 6.238044623540000000e-01 2.105920553429999897e-01 -3.728341262100000331e-02 -2.004566410999999819e-03 1.640318248579999971e-01 -1.684247434099999940e-01 -1.776432330400000079e-02 -1.080688227321999983e+00 -1.250509602456999936e+00 7.536116766099999476e-01 2.066106726080000067e-01 1.955423806273999920e+00 -9.231239280670000547e-01 9.286068791660000432e-01 -7.908445421390000174e-01 5.588258691470000539e-01 -4.302834811130000214e-01 9.859837237999999338e-02 -9.404870989500000444e-01 7.788236662280000333e-01 4.901145112640000190e-01 -4.660089488899999965e-01 2.049898505315999930e+00 7.982868542700000125e-02 -4.252821059200000142e-02 8.466815230299999662e-02 7.222219253189999799e-01 -1.230493170658000013e+00 2.907554202009999811e-01 -7.314116123199999597e-01 5.250824428289999624e-01 -4.066360143389999848e-01 7.361581351260000350e-01 -8.806470537939999899e-01 4.710239464100000051e-01 -2.626237188169999737e-01 6.449402657239999836e-01 -2.666507167559999836e+00 6.284112370140000348e-01 1.178201014901999910e+00 5.689689046879999879e-01 -8.905418425999999180e-03 -2.038965523399999952e-02 1.517251808908000044e+00 1.569848183230000138e-01 -3.525303450530000160e-01 2.446245344740000105e-01 6.328247656499999541e-02 -1.411885920699999970e-02 -5.587102446530000099e-01 3.634658397939999896e-01 -1.557520583639999956e-01 -3.378855244069999819e-01 3.382495345539999754e-01 -1.054821045521000089e+00 -1.532555979659999956e-01 4.364711929210000063e-01 -3.930146084260000006e-01 -1.318054797830000013e-01 4.627197175989999911e-01 5.303757832140000295e-01 -1.331797624622000020e+00 1.237933617919999979e-01 1.886227859434000065e+00 2.862726815459999963e-01 6.844221219889999874e-01 -3.379569227999999759e-02 -1.542880514169000072e+00 -1.952697159550000061e-01 6.892241157570000443e-01 1.386345063609999984e-01 3.253223066500000177e-02 -3.972848616979999803e-01 3.877919790909999942e-01 5.776821459350000021e-01 -8.419962246550000140e-01 -6.136198122329999949e-01 8.365368174589999928e-01 1.679811566144999935e+00 -4.700590184999999845e-03 2.558043096366999780e+00 -1.765222355130000031e-01 -1.278190185761000075e+00 2.443791200069999892e-01 -4.394711967959999965e-01 1.291211161219999903e+00 -4.717094294070000027e-01 1.891575664679999991e-01 8.638394205670000270e-01 1.873129271679999930e-01 -2.735887047900000257e-01 4.221812574909999949e-01 -8.764110383030000451e-01 1.391947526779999944e-01 1.126507407152999907e+00 1.201704568333999967e+00 -3.216484681060000073e-01 -4.530646848170000185e-01 1.687823510350000000e-01 5.244824766890000545e-01 -2.704154953110000092e-01 2.613002296990000195e-01 3.117146474779999843e-01 -2.263869495934000220e+00 9.087535550200000201e-02 -1.095949002568999964e+00 -5.810668459379999540e-01 -2.752509892141000059e+00 7.086930238690000161e-01 -8.798346702160000365e-01 -2.640796802923000008e+00 8.239803520020000382e-01
-9.631771745670000273e-01 -5.253717679639999805e-01 2.791141189019999969e-01 3.000993136380000204e-01 -1.437638658070000131e-01 -3.593809517999999731e-02 -4.750346835979999960e-01 -4.331589334500000193e-02 7.205894275559999729e-01 -3.578847125069999913e-01 -1.172410540999999952e-02 3.735322047779999766e-01 2.698774529469999961e-01 2.161043660760000040e-01 -1.508628605769999909e-01 1.794585523120000026e-01 1.043840633839999976e-01 1.660018263040000108e-01 1.494535689419999869e-01 -3.581147558669999786e-01 3.770668879160000153e-01 1.482659861000000003e-02 -3.496752597619999792e-01 4.728595162329999879e-01 -6.042962538430000086e-01 -4.140142955789999912e-01 1.108753658531000053e+00 -2.641825294399999802e-01 -5.643642878150000319e-01 -1.540639842735999965e+00 1.633510037251000080e+00 -3.532301068420000134e-01 -2.160381963489999890e+00 1.681049562581000023e+00 2.342668920419999912e-01 5.743605332869999858e-01 -1.077624642129000110e+00 -3.249282695969999968e-01 6.772608930199999766e-02 3.608673054529999980e-01 -6.838722193770000457e-01 2.866445715290000251e-01 -7.024607316590000261e-01 2.304473209160000091e-01 -4.979055848889999969e-01 -1.716218896760000057e-01 -5.717628308840000395e-01 -6.236906796419999788e-01 -3.118265967789999871e-01 2.137399339359999928e-01 9.994920128999999764e-02 8.538887513559999531e-01 2.795269430885999995e+00 -1.174466751268000042e+00 1.950151306173000032e+00 -2.714325660829999820e-01 -6.679104816209999740e-01 9.814345852760000266e-01 -1.355507425145999978e+00 -1.278632876449999900e+00 4.890763604200000225e-01 -1.145454270290000021e-01 7.775950664970000537e-01 -8.285791401930000522e-01 -8.914994599629999517e-01 3.231004421640000235e-01 8.061383580799999504e-02 2.340212230479999933e-01 6.124180924799999676e-02 -1.119762806998999993e+00 -1.587698399633999946e+00 9.978494965049999887e-01 -9.268320039820000522e-01 3.393484191339999900e-01 -5.286912287349999628e-01 1.836464240653000068e+00 4.374503184240000064e-01 5.629649813560000382e-01 -6.824883039189999501e-01 3.465744764579999915e-01 6.299644612360000284e-01 2.823989321920000184e-01 -1.383830859259999879e-01 6.085645006700000220e-02 1.291322167260000042e-01 -4.695304835300000146e-02 -3.419370731799999813e-02 -1.094787735981999965e+00 -1.268553890658000061e+00 7.656337123149999924e-01 2.392044474380000119e-01 2.160407455875999805e+00 -9.929530078189999776e-01 1.082932217625000026e+00 -7.573191863970000215e-01 5.404883611899999885e-01 -5.037707163510000141e-01 1.017033811170000024e-01 -8.714420261909999743e-01 8.019098169580000102e-01 5.212989771410000417e-01 -4.643639297059999893e-01 2.124723857939000204e+00 8.820354810899999620e-02 -2.543722417300000108e-02 1.210633218239999948e-01 7.695290733499999813e-01 -1.249314051592999908e+00 2.692268296890000245e-01 -7.114079781200000063e-01 5.271289599239999957e-01 -4.206841270910000041e-01 7.921856597859999738e-01 -9.145347887579999835e-01 5.124118074669999912e-01 -2.190442498600000121e-01 6.211242164510000219e-01 -2.521479845503999950e+00 5.894594479160000233e-01 1.124700297541000094e+00 5.552751467250000017e-01 -5.364800827000000029e-03 -3.058626635499999899e-02 1.473401402536999916e+00 1.582437581789999936e-01 -4.470424067209999852e-01 2.423059834050000083e-01 4.999698217199999989e-02 -1.505946584399999941e-02 -5.612330319480000052e-01 3.504020899820000090e-01 -2.077616603599999889e-01 -3.556716483760000158e-01 3.789253929720000080e-01 -1.117515917771999989e+00 -1.213453047629999976e-01 3.509499129429999864e-01 -3.742815092199999749e-01 -1.084082511880000016e-01 4.078753176209999887e-01 4.931615341139999886e-01 -1.358177142905999890e+00 1.476201974190000099e-01 1.893514868200999901e+00 2.723916190130000192e-01 6.328901820469999828e-01 -3.956923123799999803e-02 -1.460954354025999935e+00 -2.087786056379999922e-01 6.921522193189999506e-01 1.459354427779999963e-01 6.344140570900000387e-02 -4.146994832870000147e-01 4.311376014939999890e-01 6.045430368969999524e-01 -8.608971463719999884e-01 -5.347762671929999767e-01 7.577622574679999667e-01 1.601158879473999930e+00 -1.321596028000000074e-03 2.564150391810999796e+00 -2.191450751119999873e-01 -1.246369765093999993e+00 2.217235940969999874e-01 -4.115720748109999994e-01 1.327321523588000041e+00 -4.682017071919999940e-01 1.992505790580000047e-01 7.289560239250000295e-01 1.694511081889999993e-01 -2.759394914989999892e-01 4.352839877970000049e-01 -8.744261780969999620e-01 1.423026541690000091e-01 1.079276227513999986e+00 1.286128627172999916e+00 -3.441714170919999982e-01 -4.444800738649999916e-01 1.774576901040000043e-01 5.732183072630000487e-01 -2.714597446690000249e-01 2.596852807389999906e-01 3.158336889669999814e-01 -2.063681296022000122e+00 9.829191771499999619e-02 -1.048651223802999910e+00 -6.044210606080000492e-01 -2.939311956372999912e+00 7.728714910899999735e-01 -8.762664471540000388e-01 -2.651367507288000080e+00 8.155409578510000035e-01
-1.022097674352999919e+00 -4.928396424270000131e-01 2.642488880709999988e-01 2.671212620260000059e-01 -1.328005610419999982e-01 -9.793099047299999582e-02 -3.805895542109999918e-01 -8.887491434399999446e-02 6.389981906760000552e-01 -3.511518767890000059e-01 3.519310481900000259e-02 3.579780532799999859e-01 2.454565211020000026e-01 1.796582632800000079e-01 -1.336832557089999984e-01 1.909038956200000137e-01 1.010111453549999982e-01 1.667694327539999966e-01 1.688016055640000068e-01 -3.510337902699999790e-01 3.775532544890000120e-01 1.121575954500000048e-02 -4.016730577729999974e-01 5.163149217850000472e-01 -6.064845133330000193e-01 -4.349589995120000108e-01 1.135978429489000074e+00 -3.110060082159999961e-01 -5.456024356680000409e-01 -1.544032046454999918e+00 1.586703823923999890e+00 -3.355809654740000147e-01 -2.097755365213000101e+00 1.552031292661000039e+00 2.096301291890000085e-01 6.233897480260000012e-01 -1.043741014362999930e+00 -3.102702909419999822e-01 6.830954136899999862e-02 3.508436350429999795e-01 -7.297277553980000553e-01 3.624619175859999931e-01 -6.860098586720000391e-01 2.772693304359999944e-01 -4.953731986079999983e-01 -2.241676147989999923e-01 -5.450244442049999583e-01 -6.065049957789999668e-01 -2.840182546219999771e-01 1.500971346019999986e-01 1.066928614299999939e-01 8.410103782379999560e-01 2.726364955744000174e+00 -1.152267315575999929e+00 1.761365746564999890e+00 -2.590499310420000256e-01 -5.893474170250000421e-01 9.065123927599999520e-01 -1.307960016096000100e+00 -1.143245536428999953e+00 4.629334524870000189e-01 -8.020320686000000088e-02 7.834934870469999479e-01 -8.857744101250000224e-01 -9.505210983690000059e-01 3.508596283509999858e-01 8.749837012500000233e-02 2.418692193109999999e-01 7.493060071099999497e-02 -1.139368406211999973e+00 -1.540879128902999939e+00 9.469546301340000527e-01 -8.515967639170000103e-01 3.503706766069999978e-01 -4.773103738139999885e-01 1.569823702162000068e+00 4.238399196079999931e-01 4.948463691969999800e-01 -6.786823866960000062e-01 3.295160809079999975e-01 6.306254493449999776e-01 3.393682978470000111e-01 -2.305488571069999881e-01 1.170383530419999984e-01 9.508498167800000234e-02 6.456504060100000386e-02 -4.760081724500000305e-02 -1.093447089069000011e+00 -1.255990756115999973e+00 7.583880034900000178e-01 2.508809763689999750e-01 2.301021584207000092e+00 -1.037973257983999975e+00 1.198884733060999963e+00 -7.159301021980000179e-01 5.054738676950000231e-01 -5.776688249470000036e-01 1.035571746099999968e-01 -8.015564246190000075e-01 8.246114575620000497e-01 5.551960349340000489e-01 -4.620033936430000265e-01 2.186213281690999821e+00 9.694958715700000007e-02 -1.145626584199999944e-02 1.557188143569999961e-01 8.114540805400000112e-01 -1.256847439281999934e+00 2.434976296330000067e-01 -6.823411667980000539e-01 5.263613162529999778e-01 -4.357662706289999743e-01 8.453959512219999528e-01 -9.452347026749999825e-01 5.499630448540000494e-01 -1.790601175690000046e-01 5.994735488550000380e-01 -2.347552671572000094e+00 5.445263543570000309e-01 1.056967750774999937e+00 5.327085484119999936e-01 -3.328215950999999923e-03 -4.162722852299999970e-02 1.417311123163000008e+00 1.566556062549999961e-01 -5.336134899119999719e-01 2.389480326250000009e-01 3.548884242599999878e-02 -1.142417526400000063e-02 -5.581607323310000535e-01 3.378864628700000150e-01 -2.601912918609999847e-01 -3.727859923999999880e-01 4.154647129469999922e-01 -1.176399773822000006e+00 -9.108418435199999719e-02 2.735890780699999913e-01 -3.575864334950000223e-01 -8.176933614699999353e-02 3.472660198709999757e-01 4.553853568319999878e-01 -1.343825788613000061e+00 1.497351281850000104e-01 1.856534994683999962e+00 2.582484875239999811e-01 5.832028133540000381e-01 -4.480938216299999721e-02 -1.360434210801999999e+00 -2.233870226019999961e-01 6.884669681930000174e-01 1.566840265339999871e-01 9.413492322199999707e-02 -4.343968684610000075e-01 4.777568634689999816e-01 6.324254804550000220e-01 -8.740582220729999907e-01 -4.453839060220000090e-01 6.709740044969999540e-01 1.507834420098000061e+00 -2.571496570000000046e-04 2.532425639982000209e+00 -2.459037082699999932e-01 -1.189211792440000082e+00 1.847222985670000095e-01 -3.637845172379999825e-01 1.354028135919000064e+00 -4.644847737369999785e-01 2.060420484340000080e-01 6.104680991540000212e-01 1.514553919480000066e-01 -2.769195358579999988e-01 4.515959124810000058e-01 -8.721426053880000362e-01 1.441988557209999966e-01 1.029671519531000001e+00 1.332356299179999981e+00 -3.472829356039999760e-01 -4.357834658940000216e-01 1.831032673649999887e-01 6.229568806580000340e-01 -2.723138253619999949e-01 2.582688000319999788e-01 3.202365511699999945e-01 -1.832494320324999926e+00 1.246830597899999948e-01 -9.989340929169999717e-01 -6.144113884830000316e-01 -3.078071809808999859e+00 8.161199263480000132e-01 -8.568265183280000530e-01 -2.599037930901999971e+00 7.851702058449999688e-01
-1.066538979983999935e+00 -4.596767402540000158e-01 2.511046136010000041e-01 2.295589502270000137e-01 -1.253594588109999963e-01 -1.623721717259999919e-01 -2.837961551409999839e-01 -1.364405268349999922e-01 5.579186546490000342e-01 -3.433226497849999892e-01 8.319916705900000375e-02 3.426719001190000058e-01 2.236153448729999993e-01 1.461943609670000033e-01 -1.193206260470000002e-01 2.005066912060000095e-01 9.765592908299999819e-02 1.673674114420000136e-01 1.907806553020000018e-01 -3.414496093470000271e-01 3.756778810409999725e-01 6.910206611000000061e-03 -4.497169270510000261e-01 5.570367663440000117e-01 -6.057417743890000095e-01 -4.493423947019999920e-01 1.148641395495999973e+00 -3.548875732760000123e-01 -5.218881082280000250e-01 -1.537237369937000109e+00 1.499469620961999983e+00 -3.025047469309999904e-01 -1.987421745558999975e+00 1.407997956188000055e+00 1.854704132309999975e-01 6.682848572880000226e-01 -1.002067941313000032e+00 -2.937714550480000075e-01 7.059917132300000397e-02 3.413662998809999793e-01 -7.713584593550000257e-01 4.321450985290000157e-01 -6.670856651480000510e-01 3.151609071379999905e-01 -4.869855777429999977e-01 -2.781691738779999978e-01 -5.152326292359999949e-01 -5.885082084039999772e-01 -2.571979759069999982e-01 8.862489603400000582e-02 1.141873705449999998e-01 8.148077727160000228e-01 2.598070507751999880e+00 -1.109514179864000027e+00 1.551409067610999948e+00 -2.453176574310000080e-01 -4.976981792169999919e-01 8.238136424219999476e-01 -1.255719566083999927e+00 -9.933791957409999762e-01 4.328067211900000211e-01 -4.595180255299999988e-02 7.782648032950000294e-01 -9.351721671870000252e-01 -9.982909435750000338e-01 3.740794749029999755e-01 9.276929040799999915e-02 2.499715321440000027e-01 8.977553720399999992e-02 -1.155693844026999928e+00 -1.456310928426000073e+00 8.663096923349999923e-01 -7.697665053929999557e-01 3.620143427609999742e-01 -4.212438181370000145e-01 1.288648954376000022e+00 4.100920983570000011e-01 4.249127465029999828e-01 -6.688997434069999803e-01 3.110521230209999932e-01 6.256719018790000142e-01 3.826434446379999854e-01 -3.150570142349999880e-01 1.668005329629999867e-01 6.173802978100000061e-02 1.653162266909999900e-01 -5.806545655599999745e-02 -1.076267010982000061e+00 -1.213645960275000046e+00 7.340030805770000333e-01 2.402467557949999888e-01 2.365513550214000116e+00 -1.054715352532000106e+00 1.278631183454999931e+00 -6.656865690100000066e-01 4.532189593350000045e-01 -6.502014402589999520e-01 1.039961363550000045e-01 -7.326645537729999935e-01 8.469210628819999753e-01 5.917265960499999977e-01 -4.583757394519999973e-01 2.232293821575999981e+00 1.063119870230000014e-01 -9.113618359999999842e-04 1.871021509440000119e-01 8.459591234200000143e-01 -1.252652859924999973e+00 2.136273883679999930e-01 -6.444039501189999797e-01 5.226878326110000472e-01 -4.514365536230000031e-01 8.948476342850000265e-01 -9.716855011239999840e-01 5.835230945429999982e-01 -1.429561052259999965e-01 5.801828922439999925e-01 -2.155285727734999934e+00 4.951207387389999770e-01 9.784917957230000463e-01 5.022809156430000366e-01 -2.545482637000000010e-03 -5.345283749199999934e-02 1.351487743837000099e+00 1.517120526869999986e-01 -6.099553732700000452e-01 2.346349443680000035e-01 2.014369561300000111e-02 -3.903556376000000099e-03 -5.496407258159999865e-01 3.263108197290000012e-01 -3.120843670919999924e-01 -3.894848685239999941e-01 4.467614651849999841e-01 -1.229970571141000057e+00 -6.254504604199999374e-02 2.046890721050000084e-01 -3.429177771460000246e-01 -5.189252916400000082e-02 2.817388211329999725e-01 4.179427853059999864e-01 -1.292080092650000012e+00 1.337739454519999982e-01 1.778593672496000089e+00 2.437539897279999979e-01 5.356752010780000406e-01 -4.937147836300000148e-02 -1.245928923913000030e+00 -2.397789413530000135e-01 6.795290084799999741e-01 1.706401984910000114e-01 1.254199878620000097e-01 -4.558046991940000181e-01 5.278634884239999936e-01 6.608451699039999960e-01 -8.804508495239999899e-01 -3.503623312210000229e-01 5.806258310240000053e-01 1.405000095012000072e+00 -1.384520937999999916e-03 2.464706072185999908e+00 -2.568529781239999865e-01 -1.106699204911999912e+00 1.326209881419999903e-01 -2.946566755689999928e-01 1.370173395289000062e+00 -4.604579055490000128e-01 2.088626551009999943e-01 5.070007305339999659e-01 1.330294333550000041e-01 -2.768324757710000084e-01 4.709732086689999986e-01 -8.682439332179999747e-01 1.438975677259999864e-01 9.757355256319999448e-01 1.342257048090000016e+00 -3.332298441100000064e-01 -4.270278657079999984e-01 1.852118619289999935e-01 6.741182969150000259e-01 -2.728827810539999899e-01 2.572396169389999931e-01 3.247526384050000159e-01 -1.581803182180999912e+00 1.690537167810000074e-01 -9.503373150170000283e-01 -6.101249390470000478e-01 -3.157895262410999937e+00 8.353349100079999756e-01 -8.223443539670000080e-01 -2.489109991619999906e+00 7.345066963580000330e-01
-1.094585034037000026e+00 -4.265330700380000062e-01 2.400606779879999875e-01 1.875038577979999954e-01 -1.215530951710000057e-01 -2.291653925540000081e-01 -1.864351618550000034e-01 -1.854030015389999952e-01 4.786170828010000156e-01 -3.349242285649999817e-01 1.318508277219999913e-01 3.280616263710000036e-01 2.041758465129999978e-01 1.157916811050000022e-01 -1.077395145730000031e-01 2.081620031189999886e-01 9.437242754699999570e-02 1.677091368589999909e-01 2.152286024589999958e-01 -3.293338966050000094e-01 3.713810082980000260e-01 1.451989315999999922e-03 -4.928792273479999930e-01 5.941139842270000138e-01 -6.004932214599999485e-01 -4.568511598480000102e-01 1.146123963570000015e+00 -3.940044155299999851e-01 -4.940638439350000244e-01 -1.520333853466999896e+00 1.377472078789000021e+00 -2.601215800910000042e-01 -1.835317921669999963e+00 1.252974843080999934e+00 1.627084167320000108e-01 7.059737925589999463e-01 -9.538605956329999636e-01 -2.757736123899999781e-01 7.431789239699999883e-02 3.326979472950000183e-01 -8.075765723750000236e-01 4.936544078969999916e-01 -6.455624927299999927e-01 3.442808027479999922e-01 -4.726204024769999901e-01 -3.329234225380000023e-01 -4.831798628719999877e-01 -5.703048582070000538e-01 -2.313835426549999963e-01 2.950231813099999864e-02 1.224043070919999948e-01 7.773156007829999936e-01 2.419782555902000087e+00 -1.049124543595999937e+00 1.330334095311999976e+00 -2.319286891250000038e-01 -3.970042224259999752e-01 7.380373686760000052e-01 -1.202153483447000015e+00 -8.346193738980000054e-01 3.984592116510000115e-01 -1.152171817000000043e-02 7.622828412959999911e-01 -9.751255046729999654e-01 -1.033072043088999914e+00 3.924628012429999813e-01 9.643194788099999915e-02 2.582564394640000094e-01 1.057606767520000018e-01 -1.170574663972999918e+00 -1.336664452743000053e+00 7.572153807999999486e-01 -6.835001586409999996e-01 3.742051281800000129e-01 -3.618722138359999896e-01 1.004333756957999979e+00 3.972802907629999769e-01 3.564093694759999931e-01 -6.532207544179999825e-01 2.909196636070000008e-01 6.151037374869999796e-01 4.134993562159999803e-01 -3.931432688629999950e-01 2.105411972110000085e-01 2.879805322499999834e-02 2.548792724980000202e-01 -6.572591163400000325e-02 -1.043604483123000026e+00 -1.144056767419999954e+00 6.952689942349999930e-01 2.069849115500000114e-01 2.346497500272000103e+00 -1.041651866969999896e+00 1.325249663384999943e+00 -6.059573258260000372e-01 3.838808518030000227e-01 -7.198813347729999812e-01 1.028953254470000023e-01 -6.662306828089999966e-01 8.688364438479999619e-01 6.307026726019999696e-01 -4.528077877769999815e-01 2.261302830442999845e+00 1.164863744449999988e-01 6.045033574000000312e-03 2.136998248149999946e-01 8.711457972620000323e-01 -1.236631588832999951e+00 1.797686089670000043e-01 -5.980353005820000512e-01 5.161307560500000280e-01 -4.672131897119999877e-01 9.396237735939999558e-01 -9.928453429929999796e-01 6.130161339790000108e-01 -1.109005202790000061e-01 5.633519969379999770e-01 -1.954788802031000028e+00 4.427477392279999813e-01 8.929708227549999489e-01 4.650744019759999737e-01 -2.726301543999999979e-03 -6.598821431100000690e-02 1.278350213166999927e+00 1.430512392599999905e-01 -6.742404647430000342e-01 2.294286277850000055e-01 4.327254642000000033e-03 6.859172898000000067e-03 -5.359680236930000063e-01 3.160114043650000260e-01 -3.626421528770000235e-01 -4.059249704410000104e-01 4.717604073780000129e-01 -1.276752453223999995e+00 -3.572124018899999753e-02 1.442159853330000074e-01 -3.301523289739999867e-01 -1.876237212900000104e-02 2.121401742980000005e-01 3.817227404429999749e-01 -1.208714999552999991e+00 1.044980831039999947e-01 1.665812116374000063e+00 2.288007290269999938e-01 4.904504242120000246e-01 -5.314646632799999854e-02 -1.122111351315999928e+00 -2.584266475429999876e-01 6.667771910999999996e-01 1.875029135429999994e-01 1.579822465949999866e-01 -4.784120920730000059e-01 5.816414145199999552e-01 6.892036341010000511e-01 -8.791896633100000358e-01 -2.545335165750000073e-01 4.907322789849999922e-01 1.297731273719999967e+00 -4.299556710000000150e-03 2.364731661241000094e+00 -2.532693562710000013e-01 -1.000112300143999988e+00 6.531398745699999731e-02 -2.037178124150000047e-01 1.374770910385999967e+00 -4.560584136759999740e-01 2.070533632999999873e-01 4.168405785370000172e-01 1.139575592479999955e-01 -2.758916159140000213e-01 4.932534113190000236e-01 -8.611454150349999725e-01 1.402937143909999962e-01 9.163133355179999828e-01 1.319344767497000026e+00 -3.049549176690000141e-01 -4.183476353019999761e-01 1.831833057180000113e-01 7.271637155560000121e-01 -2.730988957550000151e-01 2.568847812819999854e-01 3.291056621830000251e-01 -1.321561583392999895e+00 2.307463836170000060e-01 -9.061098974439999454e-01 -5.919051447780000474e-01 -3.172328767464999810e+00 8.294097966340000516e-01 -7.745689155099999557e-01 -2.331076548565000017e+00 6.666918269920000251e-01
-1.104914874819000081e+00 -3.938609983690000149e-01 2.312215442639999896e-01 1.411908796520000009e-01 -1.214187420500000003e-01 -2.981161300499999833e-01 -8.997055159200000041e-02 -2.352602642180000037e-01 4.020885775410000251e-01 -3.264410808739999781e-01 1.806812450030000072e-01 3.145885325939999921e-01 1.869638723860000129e-01 8.843717952900000123e-02 -9.885499991500000527e-02 2.137326247980000093e-01 9.114955037899999390e-02 1.677741492610000107e-01 2.419579800190000130e-01 -3.147536548040000270e-01 3.647049179890000103e-01 -5.585999654999999897e-03 -5.303219781769999974e-01 6.266445991379999692e-01 -5.910121309160000225e-01 -4.574237335770000024e-01 1.128401068964000054e+00 -4.266716537029999756e-01 -4.629549155750000144e-01 -1.493670152088999892e+00 1.227779200247000047e+00 -2.151996952009999908e-01 -1.649220723842000025e+00 1.090871270032000018e+00 1.420493724090000076e-01 7.337583580759999835e-01 -9.004332354870000499e-01 -2.565997213519999876e-01 7.919205255700000057e-02 3.250901671409999749e-01 -8.372617876450000329e-01 5.451210524830000237e-01 -6.213396644199999930e-01 3.650683471719999851e-01 -4.525024172539999778e-01 -3.875827265389999998e-01 -4.496100183339999945e-01 -5.523242645329999867e-01 -2.066221887090000098e-01 -2.731674177099999851e-02 1.313221199459999877e-01 7.311572188310000442e-01 2.203619291148999793e+00 -9.750190133530000081e-01 1.107076811723000098e+00 -2.203482115650000073e-01 -2.912526985100000188e-01 6.533390603680000464e-01 -1.149883509893999900e+00 -6.722324737979999965e-01 3.597709573660000104e-01 2.342118991399999919e-02 7.363523581130000384e-01 -1.004281551305000075e+00 -1.053537656752000062e+00 4.057785831869999971e-01 9.862010202099999456e-02 2.666716136639999957e-01 1.228205398220000022e-01 -1.186020402320999922e+00 -1.186308220616999920e+00 6.222805333249999959e-01 -5.948577039200000360e-01 3.868680757449999841e-01 -3.005022630870000100e-01 7.261360777799999999e-01 3.861320199300000144e-01 2.920041153040000004e-01 -6.318254340810000036e-01 2.688612421839999822e-01 5.989422211760000447e-01 4.332973104780000195e-01 -4.657794072279999864e-01 2.485931536459999869e-01 -4.107728649000000169e-03 3.331233671430000043e-01 -7.081911387000000557e-02 -9.965812423409999843e-01 -1.051125422956999955e+00 6.453642225800000354e-01 1.519377728469999966e-01 2.242080945515999790e+00 -9.994624143710000297e-01 1.342835306912000037e+00 -5.366201267910000183e-01 2.983587865069999845e-01 -7.854702406510000179e-01 1.001795097810000007e-01 -6.033394627370000096e-01 8.904157980629999747e-01 6.718256156640000087e-01 -4.445390011750000037e-01 2.272199989511999974e+00 1.275995006350000016e-01 9.458686424999999606e-03 2.341834056190000013e-01 8.854001766969999965e-01 -1.209025300611000109e+00 1.422227312509999897e-01 -5.439152620560000484e-01 5.068489168790000221e-01 -4.825361860729999730e-01 9.788512935719999586e-01 -1.007717176874999954e+00 6.384676541649999537e-01 -8.296062957100000523e-02 5.490142100210000375e-01 -1.754817410472000017e+00 3.887999077359999833e-01 8.039093628329999630e-01 4.222190971900000034e-01 -3.579634539999999952e-03 -7.913992991500000407e-02 1.200194311611000098e+00 1.304581218460000025e-01 -7.251981421040000209e-01 2.233876851090000060e-01 -1.161318773500000061e-02 2.026375102399999989e-02 -5.175460497080000000e-01 3.072661010680000082e-01 -4.112037933650000143e-01 -4.221576858309999958e-01 4.895249316240000148e-01 -1.315366880870999955e+00 -1.048519426099999916e-02 9.189685154200000206e-02 -3.190869325830000269e-01 1.771820174000000164e-02 1.392891802460000106e-01 3.476084515739999992e-01 -1.101052008391999903e+00 6.713186730100000055e-02 1.526240672016000000e+00 2.133183462519999962e-01 4.475639878250000092e-01 -5.605620484300000150e-02 -9.932468107599999874e-01 -2.795547278209999931e-01 6.515583259580000064e-01 2.069694074679999940e-01 1.924157216110000124e-01 -5.017193173659999506e-01 6.392715830549999811e-01 7.167928104959999658e-01 -8.696272943770000374e-01 -1.621436624270000126e-01 4.046456278480000113e-01 1.190612543042000038e+00 -8.360707565000000119e-03 2.237741630541000060e+00 -2.374076606609999973e-01 -8.718036918070000141e-01 -1.661063163899999945e-02 -9.152893929300000286e-02 1.367150022217000105e+00 -4.512770611440000135e-01 2.000245619359999893e-01 3.382338066719999814e-01 9.412024124499999977e-02 -2.742046874779999754e-01 5.183490934079999501e-01 -8.489343570339999978e-01 1.321490418919999965e-01 8.511495942250000279e-01 1.268437841794999965e+00 -2.657633211659999883e-01 -4.098821591969999956e-01 1.763646388269999865e-01 7.826075855870000542e-01 -2.729044787880000045e-01 2.575817806879999727e-01 3.329178666000000009e-01 -1.059454927230000010e+00 3.094900791199999834e-01 -8.689702944289999786e-01 -5.612771981220000539e-01 -3.120422909519999788e+00 7.994660357439999920e-01 -7.158207595390000400e-01 -2.137087649509000098e+00 5.858795065199999819e-01