1.425240665843632115e+01 4.191723787492447340e-01 -1.497068120508208811e+00 4.191723787492447340e-01 7.222219086975753655e+00 -4.343855653375200632e+00 -1.497068120508208811e+00 -4.343855653375200632e+00 5.843760557710203862e+00
1.334070240352060566e+01 7.555642886029932948e-01 -1.186184345464640355e+00 7.555642886029932948e-01 7.229087989982232898e+00 -4.788010996433111011e+00 -1.186184345464640355e+00 -4.788010996433111011e+00 6.038494686101420150e+00
1.221215655298719049e+01 1.071857610888308221e+00 -7.912478708040818765e-01 1.071857610888308221e+00 7.022865436881964740e+00 -5.171170378516666055e+00 -7.912478708040818765e-01 -5.171170378516666055e+00 6.066502658967081629e+00
1.091640356243876653e+01 1.360978996591873713e+00 -3.290287049991020285e-01 1.360978996591873713e+00 6.604840167264257822e+00 -5.481216570248207631e+00 -3.290287049991020285e-01 -5.481216570248207631e+00 5.934630215025433309e+00
9.499606749208185263e+00 1.618651414287815671e+00 1.794589727849425775e-01 1.618651414287815671e+00 5.993191494962910149e+00 -5.713368552800763389e+00 1.794589727849425775e-01 -5.713368552800763389e+00 5.658417391375949457e+00
8.015882633148184055e+00 1.843346919915635151e+00 7.110256649149802044e-01 1.843346919915635151e+00 5.220322149075165896e+00 -5.869840472770519568e+00 7.110256649149802044e-01 -5.869840472770519568e+00 5.258965370855023913e+00
6.520064711762756815e+00 2.037751017266212106e+00 1.242621701208603380e+00 2.037751017266212106e+00 4.330983813529138970e+00 -5.959224742361267424e+00 1.242621701208603380e+00 -5.959224742361267424e+00 4.761807617084159006e+00
5.060540270049161293e+00 2.206639487856941972e+00 1.752637689290770684e+00 2.206639487856941972e+00 3.376346071661629811e+00 -5.994934560835734949e+00 1.752637689290770684e+00 -5.994934560835734949e+00 4.197115987389987701e+00
3.673330588110678807e+00 2.356687067985642425e+00 2.222859879020184781e+00 2.356687067985642425e+00 2.405950696521097054e+00 -5.993173224939585708e+00 2.222859879020184781e+00 -5.993173224939585708e+00 3.589739473255019409e+00
2.385883563089169712e+00 2.496072325513964962e+00 2.638532478733168762e+00 2.496072325513964962e+00 1.466765182236655196e+00 -5.969702683650301545e+00 2.638532478733168762e+00 -5.969702683650301545e+00 2.963576292392501532e+00
1.222444204236258214e+00 2.633157385924723481e+00 2.989040649005098249e+00 2.633157385924723481e+00 5.990126337023156111e-01 -5.939340393534937590e+00 2.989040649005098249e+00 -5.939340393534937590e+00 2.338782595678454701e+00
2.015503193482494904e-01 2.775167057856960717e+00 3.267768095197446598e+00 2.775167057856960717e+00 -1.665874975967274740e-01 -5.913277923698381677e+00 3.267768095197446598e+00 -5.913277923698381677e+00 1.730539633354236884e+00
-1.373038697434727062e+00 3.092844786460146711e+00 3.601867307995524126e+00 3.092844786460146711e+00 -1.334129008361380819e+00 -5.897760401977713229e+00 3.601867307995524126e+00 -5.897760401977713229e+00 5.970597620200192024e-01
-1.927372495538152597e+00 3.272851479436116318e+00 3.661254255700895133e+00 3.272851479436116318e+00 -1.735329622583359876e+00 -5.910195400344814054e+00 3.661254255700895133e+00 -5.910195400344814054e+00 7.726104312456467949e-02
-2.338606981204933710e+00 3.464108100291059866e+00 3.656588599111024962e+00 3.464108100291059866e+00 -2.032167107966309061e+00 -5.931169508523050027e+00 3.656588599111024962e+00 -5.931169508523050027e+00 -4.148956080874811048e-01
-2.620722155188907720e+00 3.660864060790385732e+00 3.597305429645679453e+00 3.660864060790385732e+00 -2.249213494130996693e+00 -5.953018106875171078e+00 3.597305429645679453e+00 -5.953018106875171078e+00 -8.854021852298107342e-01
-2.790479975828314974e+00 3.854333776149748925e+00 3.495082483684625707e+00 3.854333776149748925e+00 -2.415915581314544536e+00 -5.965897412651413489e+00 3.495082483684625707e+00 -5.965897412651413489e+00 -1.342913260019170663e+00
-2.864492897109111258e+00 4.033089669161182833e+00 3.363293673254854177e+00 4.033089669161182833e+00 -2.562629112661804154e+00 -5.958360328368731196e+00 3.363293673254854177e+00 -5.958360328368731196e+00 -1.796932073313695755e+00
-2.860570163274792410e+00 4.184696689394682423e+00 3.216981003216741186e+00 4.184696689394682423e+00 -2.720093130521388236e+00 -5.918646197758516969e+00 3.216981003216741186e+00 -5.918646197758516969e+00 -2.255655624044007546e+00
-2.795489993898808478e+00 4.296898609474439468e+00 3.071229994177164357e+00 4.296898609474439468e+00 -2.915579073444674485e+00 -5.836420179903080374e+00 3.071229994177164357e+00 -5.836420179903080374e+00 -2.727050723671979870e+00
-2.535363690644359735e+00 4.362846189981242517e+00 2.838082009110502124e+00 4.362846189981242517e+00 -3.504908245315400794e+00 -5.513221524520431238e+00 2.838082009110502124e+00 -5.513221524520431238e+00 -3.727196433962354227e+00
-2.361227785950345215e+00 4.304697969348221243e+00 2.772447753763379819e+00 4.304697969348221243e+00 -3.921657343910191607e+00 -5.264697510739885900e+00 2.772447753763379819e+00 -5.264697510739885900e+00 -4.258321409299600901e+00
-2.167769983281525814e+00 4.185162837101772837e+00 2.749750465628703733e+00 4.185162837101772837e+00 -4.423404225355368702e+00 -4.960479553664255192e+00 2.749750465628703733e+00 -4.960479553664255192e+00 -4.808120994900670908e+00
-1.959866905626781897e+00 4.009073137289759892e+00 2.771430908821781003e+00 4.009073137289759892e+00 -5.003203395825167377e+00 -4.607078903973457429e+00 2.771430908821781003e+00 -4.607078903973457429e+00 -5.371901137211064992e+00
-1.272536773296896628e+00 3.247508548001276196e+00 3.054229134556859737e+00 3.247508548001276196e+00 -7.042899331031747145e+00 -3.357505578245992162e+00 3.054229134556859737e+00 -3.357505578245992162e+00 -7.072138800182786511e+00
-1.029483433079370291e+00 2.959028748804651165e+00 3.189997774374124351e+00 2.959028748804651165e+00 -7.758981409290855780e+00 -2.920783599717860390e+00 3.189997774374124351e+00 -2.920783599717860390e+00 -7.615794342605016531e+00
-7.865234373269206491e-01 2.674352021442170546e+00 3.326491426183372457e+00 2.674352021442170546e+00 -8.462622332234042588e+00 -2.494127102470627744e+00 3.326491426183372457e+00 -2.494127102470627744e+00 -8.134307222086743394e+00
-5.523072070323568061e-01 2.403414419167721583e+00 3.451561619893282806e+00 2.403414419167721583e+00 -9.140022080065181243e+00 -2.087967906351824610e+00 3.451561619893282806e+00 -2.087967906351824610e+00 -8.621875734427346671e+00
-3.375096065759697894e-01 2.153224382034269802e+00 3.553490098298142552e+00 2.153224382034269802e+00 -9.783559901954891558e+00 -1.710645996025532245e+00 3.553490098298142552e+00 -1.710645996025532245e+00 -9.074491453933520191e+00
-1.546577876445174027e-01 1.927956145702057755e+00 3.621064547697254721e+00 1.927956145702057755e+00 -1.038775548817866223e+01 -1.367872106668278853e+00 3.621064547697254721e+00 -1.367872106668278853e+00 -9.487993767599228079e+00
-1.667943743565019135e-02 1.728495162106700178e+00 3.645296141933319412e+00 1.728495162106700178e+00 -1.095067298598072192e+01 -1.063758911186458267e+00 3.645296141933319412e+00 -1.063758911186458267e+00 -9.858927577594720049e+00
6.124542749730789437e-02 1.553711118316515094e+00 3.618931504026030588e+00 1.553711118316515094e+00 -1.147425932055452691e+01 -8.009622333872082889e-01 3.618931504026030588e+00 -8.009622333872082889e-01 -1.018490859597120135e+01
6.500787075911321211e-02 1.399916001926223563e+00 3.536681459244128689e+00 1.399916001926223563e+00 -1.196213284109743924e+01 -5.808648090577497314e-01 3.536681459244128689e+00 -5.808648090577497314e-01 -1.046509994634696383e+01
-1.761916301128788054e-02 1.262122265322485948e+00 3.395850261957374272e+00 1.262122265322485948e+00 -1.241778087911125006e+01 -4.031830101155780000e-01 3.395850261957374272e+00 -4.031830101155780000e-01 -1.069851024279114604e+01
-1.936217627171949174e-01 1.134095781806772951e+00 3.196488595981689329e+00 1.134095781806772951e+00 -1.284586856447389991e+01 -2.664557992474614334e-01 3.196488595981689329e+00 -2.664557992474614334e-01 -1.088434879014424617e+01
-4.652775331285235461e-01 1.008815397139278813e+00 2.941912181892992972e+00 1.008815397139278813e+00 -1.325174971314022798e+01 -1.681433634368726948e-01 2.941912181892992972e+00 -1.681433634368726948e-01 -1.102309771714321052e+01
-8.337884219576947586e-01 8.793472056655453617e-01 2.638535490536940920e+00 8.793472056655453617e-01 -1.363875067072543956e+01 -1.047715957460230440e-01 2.638535490536940920e+00 -1.047715957460230440e-01 -1.111656001977997654e+01
-1.294100542448101798e+00 7.394094690092525290e-01 2.294650212586132998e+00 7.394094690092525290e-01 -1.400961722801920750e+01 -7.134152413235610168e-02 2.294650212586132998e+00 -7.134152413235610168e-02 -1.116747174143958965e+01
-1.835010289101967285e+00 5.841998815261943978e-01 1.921130042847970065e+00 5.841998815261943978e-01 -1.436697489640971881e+01 -6.294810611545498258e-02 1.921130042847970065e+00 -6.294810611545498258e-02 -1.117769342614935368e+01
-3.091733858816929637e+00 2.145615473327913136e-01 1.132335760924901846e+00 2.145615473327913136e-01 -1.504058685248608285e+01 -1.005067525422815577e-01 1.132335760924901846e+00 -1.005067525422815577e-01 -1.108945227409176759e+01
-4.470912848472290868e+00 -2.407400688114437470e-01 3.715261305257278046e-01 -2.407400688114437470e-01 -1.565221668571874147e+01 -1.768860565177451660e-01 3.715261305257278046e-01 -1.768860565177451660e-01 -1.089010374148908511e+01
-5.153309917492816972e+00 -4.991681047547119610e-01 3.095969417879235880e-02 -4.991681047547119610e-01 -1.593103651924792707e+01 -2.186364165626312472e-01 3.095969417879235880e-02 -2.186364165626312472e-01 -1.076210903470798996e+01
-5.809994231973959700e+00 -7.761459680903414204e-01 -2.694496761224452475e-01 -7.761459680903414204e-01 -1.618941436664568556e+01 -2.581328985523695385e-01 -2.694496761224452475e-01 -2.581328985523695385e-01 -1.062308066779574389e+01
-6.429429732681431808e+00 -1.069576828392271750e+00 -5.218868137607735047e-01 -1.069576828392271750e+00 -1.642605453437965579e+01 -2.942356754934622454e-01 -5.218868137607735047e-01 -2.942356754934622454e-01 -1.048096663940854434e+01
-6.994757782252888134e+00 -1.376439702453741143e+00 -7.208566070114662550e-01 -1.376439702453741143e+00 -1.663965909122718401e+01 -3.260274790984560300e-01 -7.208566070114662550e-01 -3.260274790984560300e-01 -1.034153127460059451e+01
-7.494920333948432045e+00 -1.694440551495334679e+00 -8.619450367653195277e-01 -1.694440551495334679e+00 -1.682855431964722115e+01 -3.537673893698211058e-01 -8.619450367653195277e-01 -3.537673893698211058e-01 -1.021021999958096238e+01
-7.928304480519045683e+00 -2.020927499527243931e+00 -9.432423215292387031e-01 -2.020927499527243931e+00 -1.699178783627885281e+01 -3.787794787599247925e-01 -9.432423215292387031e-01 -3.787794787599247925e-01 -1.009183438047101689e+01
-8.293663576894196865e+00 -2.353403990172125315e+00 -9.639680618557648906e-01 -2.353403990172125315e+00 -1.712865775878916352e+01 -4.035655405217162262e-01 -9.639680618557648906e-01 -4.035655405217162262e-01 -9.987566148948918254e+00
-8.588260397856609885e+00 -2.689320773816892718e+00 -9.250480652668064963e-01 -2.689320773816892718e+00 -1.724001713272988567e+01 -4.311951889338797583e-01 -9.250480652668064963e-01 -4.311951889338797583e-01 -9.898629181811713806e+00
-8.814185111595365996e+00 -3.026243284780631981e+00 -8.292470613371071275e-01 -3.026243284780631981e+00 -1.732661351451346832e+01 -4.649630683597366088e-01 -8.292470613371071275e-01 -4.649630683597366088e-01 -9.824409492098245877e+00
-8.980745688470552324e+00 -3.362172714428949938e+00 -6.807774715502091789e-01 -3.362172714428949938e+00 -1.738932995418005945e+01 -5.077277703648100937e-01 -6.807774715502091789e-01 -5.077277703648100937e-01 -9.763331589253182230e+00
-9.098367361950110421e+00 -3.694875121365348569e+00 -4.845570272719648131e-01 -3.694875121365348569e+00 -1.743041425801800060e+01 -5.625657039432987450e-01 -4.845570272719648131e-01 -5.625657039432987450e-01 -9.712661899217817307e+00
-9.229093351517319022e+00 -4.339672637433420910e+00 2.446700737628300718e-02 -4.339672637433420910e+00 -1.745640793012597314e+01 -7.161178168510882180e-01 2.446700737628300718e-02 -7.161178168510882180e-01 -9.631506957241118272e+00
-9.263991257641791321e+00 -4.646157112754420559e+00 3.219275002497575255e-01 -4.646157112754420559e+00 -1.744638988154602544e+01 -8.170709281134735935e-01 3.219275002497575255e-01 -8.170709281134735935e-01 -9.592678410544481338e+00
-9.295827074637534437e+00 -4.938111561302785724e+00 6.377825652930806388e-01 -4.938111561302785724e+00 -1.742408493014945137e+01 -9.341149250333014020e-01 6.377825652930806388e-01 -9.341149250333014020e-01 -9.552286083951678108e+00
-9.339177152067373200e+00 -5.211992113773201041e+00 9.641413484116971855e-01 -5.211992113773201041e+00 -1.739208824369916684e+01 -1.066518067890603660e+00 9.641413484116971855e-01 -1.066518067890603660e+00 -9.510192215654429404e+00
-9.403981572869925643e+00 -5.464413652412903666e+00 1.292582014217068975e+00 -5.464413652412903666e+00 -1.735240772413794019e+01 -1.212287533460822520e+00 1.292582014217068975e+00 -1.212287533460822520e+00 -9.467059135471270537e+00
-9.495770289599125391e+00 -5.691698996881590311e+00 1.614198169406391381e+00 -5.691698996881590311e+00 -1.730798025138832585e+01 -1.368087668982304494e+00 1.614198169406391381e+00 -1.368087668982304494e+00 -9.425689093191804702e+00
-9.784292018043657890e+00 -6.057115931607828685e+00 2.203165888629009306e+00 -6.057115931607828685e+00 -1.720989954298121916e+01 -1.697153767853674555e+00 2.203165888629009306e+00 -1.697153767853674555e+00 -9.377141938569049984e+00
-1.025196361684419699e+01 -6.284271287564902941e+00 2.664937095454162019e+00 -6.284271287564902941e+00 -1.710639589167375618e+01 -2.022490187460495914e+00 2.664937095454162019e+00 -2.022490187460495914e+00 -9.442774029258833579e+00
-1.055386929895532333e+01 -6.340845783427123017e+00 2.830806106004124967e+00 -6.340845783427123017e+00 -1.705281636323304539e+01 -2.175470546548709638e+00 2.830806106004124967e+00 -2.175470546548709638e+00 -9.547066535707369184e+00
-1.089586330709849271e+01 -6.358423795054672922e+00 2.946994476339639402e+00 -6.358423795054672922e+00 -1.699768980490993187e+01 -2.318515668610388047e+00 2.946994476339639402e+00 -2.318515668610388047e+00 -9.712785960043888167e+00
-1.127422272538098547e+01 -6.337623313365355671e+00 3.011574994075278511e+00 -6.337623313365355671e+00 -1.694076016708734400e+01 -2.451049425835229556e+00 3.011574994075278511e+00 -2.451049425835229556e+00 -9.947164636427872964e+00
-1.168227549659507858e+01 -6.279493808166321855e+00 3.024951258081794769e+00 -6.279493808166321855e+00 -1.688010698642753482e+01 -2.572500670711148629e+00 3.024951258081794769e+00 -2.572500670711148629e+00 -1.025205612176824665e+01
-1.255970307417207366e+01 -6.060475165949806176e+00 2.912608980993141028e+00 -6.060475165949806176e+00 -1.674131026202190498e+01 -2.784720861529277336e+00 2.912608980993141028e+00 -2.784720861529277336e+00 -1.105651454026727265e+01
-1.300873081791793062e+01 -5.905399536015484507e+00 2.798264567961596505e+00 -5.905399536015484507e+00 -1.666103192392915133e+01 -2.877675295376290077e+00 2.798264567961596505e+00 -2.877675295376290077e+00 -1.153562120277219627e+01
-1.468447818849397812e+01 -5.060905260385616167e+00 2.125403642620123268e+00 -5.060905260385616167e+00 -1.625965801457902415e+01 -3.181636754457164429e+00 2.125403642620123268e+00 -3.181636754457164429e+00 -1.362804845475459281e+01
-1.504186912376589724e+01 -4.811334821248333782e+00 1.937036239814056371e+00 -4.811334821248333782e+00 -1.614621633709090531e+01 -3.237765761248685870e+00 1.937036239814056371e+00 -3.237765761248685870e+00 -1.412707417803732568e+01
-1.536577523634395703e+01 -4.553048686495773545e+00 1.750428083160269654e+00 -4.553048686495773545e+00 -1.603132518724293121e+01 -3.282384266138504536e+00 1.750428083160269654e+00 -3.282384266138504536e+00 -1.459716566781859548e+01
-1.565491506556009504e+01 -4.289504907111994392e+00 1.568969293176287305e+00 -4.289504907111994392e+00 -1.591716907087450394e+01 -3.312546106627404452e+00 1.568969293176287305e+00 -3.312546106627404452e+00 -1.503381634439102221e+01
-1.590969309331053871e+01 -4.024237840484328643e+00 1.394753184847826288e+00 -4.024237840484328643e+00 -1.580676705773099400e+01 -3.325698196522900663e+00 1.394753184847826288e+00 -3.325698196522900663e+00 -1.543505931325898395e+01
-1.613103283563646428e+01 -3.760948521148963941e+00 1.229697426503553626e+00 -3.760948521148963941e+00 -1.570251933218140472e+01 -3.319525215274679031e+00 1.229697426503553626e+00 -3.319525215274679031e+00 -1.580042070490196338e+01
-1.647940612876576694e+01 -3.255964540907303473e+00 9.318056238788350321e-01 -3.255964540907303473e+00 -1.552708819110057270e+01 -3.243797885796718461e+00 9.318056238788350321e-01 -3.243797885796718461e+00 -1.642506009285356328e+01
-1.660971402500020488e+01 -3.022130008187220440e+00 7.993293566944883466e-01 -3.022130008187220440e+00 -1.546176573366552454e+01 -3.173183531567893567e+00 7.993293566944883466e-01 -3.173183531567893567e+00 -1.668388240644676301e+01
-1.685691272242279126e+01 -2.437107928531398127e+00 4.584379121872920182e-01 -2.437107928531398127e+00 -1.537469318994822487e+01 -2.844589316924722500e+00 4.584379121872920182e-01 -2.844589316924722500e+00 -1.723169021668564937e+01
-1.689953928129290972e+01 -2.290459973943592686e+00 3.596017147550558679e-01 -2.290459973943592686e+00 -1.537946567142544119e+01 -2.703642773302704860e+00 3.596017147550558679e-01 -2.703642773302704860e+00 -1.732966610336232094e+01
-1.693216817232238114e+01 -2.079036085541199341e+00 1.739217685728759177e-01 -2.079036085541199341e+00 -1.542196910024106238e+01 -2.391808846559746904e+00 1.739217685728759177e-01 -2.391808846559746904e+00 -1.737412433915231347e+01
-1.689009474031575664e+01 -1.974605685019189982e+00 -6.685085678553741306e-03 -1.974605685019189982e+00 -1.548393922462629213e+01 -2.061306421688370527e+00 -6.685085678553741306e-03 -2.061306421688370527e+00 -1.718937081418430779e+01
-1.676361329097587927e+01 -1.962006244389872700e+00 -1.950305205442499357e-01 -1.962006244389872700e+00 -1.551885396243732096e+01 -1.737486419952521732e+00 -1.950305205442499357e-01 -1.737486419952521732e+00 -1.675162259685628996e+01
-1.638904693667308976e+01 -2.060673684998119981e+00 -5.121810121376750846e-01 -2.060673684998119981e+00 -1.544042677144664566e+01 -1.323867299719571067e+00 -5.121810121376750846e-01 -1.323867299719571067e+00 -1.561312687263568044e+01
-1.620952008219384055e+01 -2.110079842921776194e+00 -6.282605161771070978e-01 -2.110079842921776194e+00 -1.536651129760148216e+01 -1.219477319701440798e+00 -6.282605161771070978e-01 -1.219477319701440798e+00 -1.511503323866870652e+01
-1.576586766994737410e+01 -2.211836922052342835e+00 -8.710310811761456939e-01 -2.211836922052342835e+00 -1.514189228987751434e+01 -1.080543532998725853e+00 -8.710310811761456939e-01 -1.080543532998725853e+00 -1.397327707059446134e+01
-1.550236322690873969e+01 -2.257110166833649068e+00 -9.939683136827153209e-01 -2.257110166833649068e+00 -1.499474364065328658e+01 -1.051267752514828624e+00 -9.939683136827153209e-01 -1.051267752514828624e+00 -1.334541424881633276e+01
-1.521194423867808077e+01 -2.294515590440515673e+00 -1.114447856463859132e+00 -2.294515590440515673e+00 -1.482725114237553754e+01 -1.050932260589779510e+00 -1.114447856463859132e+00 -1.050932260589779510e+00 -1.269216022447701775e+01
-1.455990416547482091e+01 -2.335514397455296098e+00 -1.338051911053851795e+00 -2.335514397455296098e+00 -1.444493540940761989e+01 -1.136885939101639265e+00 -1.338051911053851795e+00 -1.136885939101639265e+00 -1.135084482421892105e+01
-1.382656017382424629e+01 -2.321131870670830377e+00 -1.523283264014347660e+00 -2.321131870670830377e+00 -1.402517931639799542e+01 -1.328832840046941355e+00 -1.523283264014347660e+00 -1.328832840046941355e+00 -1.003142041360079517e+01
-1.303179733263532647e+01 -2.245409717561360541e+00 -1.657099907674491224e+00 -2.245409717561360541e+00 -1.359321006692182898e+01 -1.602902887332899651e+00 -1.657099907674491224e+00 -1.602902887332899651e+00 -8.803094919076473346e+00
-1.261907317393938044e+01 -2.185170052427425791e+00 -1.702788763502441460e+00 -2.185170052427425791e+00 -1.337889308794863652e+01 -1.760011449552768337e+00 -1.702788763502441460e+00 -1.760011449552768337e+00 -8.240660917187408785e+00
-1.220076292232783288e+01 -2.111516879085545195e+00 -1.734153028189612922e+00 -2.111516879085545195e+00 -1.316727287999630747e+01 -1.923636904065296305e+00 -1.734153028189612922e+00 -1.923636904065296305e+00 -7.717971437190417561e+00
-1.178193860145059624e+01 -2.026112251415449705e+00 -1.751743769487479563e+00 -2.026112251415449705e+00 -1.295910816014519362e+01 -2.088451586277588312e+00 -1.751743769487479563e+00 -2.088451586277588312e+00 -7.237760358169134101e+00
-1.096822624342981278e+01 -1.828734625568744443e+00 -1.746688017714928431e+00 -1.828734625568744443e+00 -1.255507868381716818e+01 -2.400779054652670830e+00 -1.746688017714928431e+00 -2.400779054652670830e+00 -6.411337756888098482e+00
-1.058748355024129317e+01 -1.721289818118570736e+00 -1.725850610314666467e+00 -1.721289818118570736e+00 -1.235995992477323924e+01 -2.538659805470741215e+00 -1.725850610314666467e+00 -2.538659805470741215e+00 -6.064449410134452378e+00
-1.023419691641298002e+01 -1.610993984086514175e+00 -1.694426416439808625e+00 -1.610993984086514175e+00 -1.216895599011470530e+01 -2.659719031412186574e+00 -1.694426416439808625e+00 -2.659719031412186574e+00 -5.759684636891392984e+00
-9.914359361563198192e+00 -1.499347387892198791e+00 -1.654290828321662410e+00 -1.499347387892198791e+00 -1.198029689188910041e+01 -2.762453492782044773e+00 -1.654290828321662410e+00 -2.762453492782044773e+00 -5.494733170682811974e+00
-9.633624058334131490e+00 -1.386805690043629635e+00 -1.607959205255599100e+00 -1.386805690043629635e+00 -1.179129510456908214e+01 -2.847199830918869523e+00 -1.607959205255599100e+00 -2.847199830918869523e+00 -5.266198124680431469e+00
-9.395325971110644048e+00 -1.273018938237578057e+00 -1.558398853240680726e+00 -1.273018938237578057e+00 -1.160262963445135753e+01 -2.916017815770748367e+00 -1.558398853240680726e+00 -2.916017815770748367e+00 -5.072031341242255742e+00
-9.048058881973458867e+00 -1.035415735432450468e+00 -1.463904995490004746e+00 -1.035415735432450468e+00 -1.122074454024064494e+01 -3.025838230218460101e+00 -1.463904995490004746e+00 -3.025838230218460101e+00 -4.783089958541461684e+00
-8.931861607074393916e+00 -9.076193087250444824e-01 -1.424911241118911764e+00 -9.076193087250444824e-01 -1.102782748628509957e+01 -3.081334678618037337e+00 -1.424911241118911764e+00 -3.081334678618037337e+00 -4.687143000937791015e+00
-8.847192073233815179e+00 -7.712414420220824463e-01 -1.394411200701207276e+00 -7.712414420220824463e-01 -1.083626472206147007e+01 -3.148685653917901117e+00 -1.394411200701207276e+00 -3.148685653917901117e+00 -4.625164151197923346e+00
-8.713007029316175434e+00 -3.013890041573983325e-01 -1.363585751912093524e+00 -3.013890041573983325e-01 -1.030208169613550773e+01 -3.503486038304651995e+00 -1.363585751912093524e+00 -3.503486038304651995e+00 -4.668058348780556699e+00
-8.684534065870566977e+00 -1.283280702910467863e-01 -1.370781752760259931e+00 -1.283280702910467863e-01 -1.015290944043914578e+01 -3.692683283813306350e+00 -1.370781752760259931e+00 -3.692683283813306350e+00 -4.764642428244360239e+00
-8.655308342796137921e+00 4.752888925268326792e-02 -1.382440724992092029e+00 4.752888925268326792e-02 -1.002561702435805380e+01 -3.919918721610076151e+00 -1.382440724992092029e+00 -3.919918721610076151e+00 -4.902774422858153791e+00
-8.585451291961865294e+00 3.829377824851555867e-01 -1.403422967743618077e+00 3.829377824851555867e-01 -9.849009914005709021e+00 -4.472760087998681300e+00 -1.403422967743618077e+00 -4.472760087998681300e+00 -5.293849230163555575e+00
-8.545597596355188230e+00 5.273842524779092100e-01 -1.403172605847333942e+00 5.273842524779092100e-01 -9.808104989321073219e+00 -4.781542787957977048e+00 -1.403172605847333942e+00 -4.781542787957977048e+00 -5.538754821758554492e+00
-8.475399305055761445e+00 7.307687985192191649e-01 -1.354885972750432543e+00 7.307687985192191649e-01 -9.835806393433500716e+00 -5.406406196803067665e+00 -1.354885972750432543e+00 -5.406406196803067665e+00 -6.104568926469879919e+00
-8.454570463016629844e+00 7.777233980651440115e-01 -1.297067999352267798e+00 7.777233980651440115e-01 -9.909043404880984340e+00 -5.698105933704318282e+00 -1.297067999352267798e+00 -5.698105933704318282e+00 -6.418207549291190972e+00
-8.452135546829254054e+00 7.835039131751085906e-01 -1.211112555686543191e+00 7.835039131751085906e-01 -1.002609033658578852e+01 -5.961490313301527344e+00 -1.211112555686543191e+00 -5.961490313301527344e+00 -6.749255285304377239e+00
-8.474067123439740001e+00 7.482327960045542792e-01 -1.095028973091288327e+00 7.482327960045542792e-01 -1.018562316991617855e+01 -6.188585422436923444e+00 -1.095028973091288327e+00 -6.188585422436923444e+00 -7.096589624906828320e+00
-8.523494253585472080e+00 6.752759780915004173e-01 -9.481722028029541116e-01 6.752759780915004173e-01 -1.038616481403522407e+01 -6.374295482372281718e+00 -9.481722028029541116e-01 -6.374295482372281718e+00 -7.460162944871109758e+00
-8.713449890522966257e+00 4.420120474380040965e-01 -5.692767109722537411e-01 4.420120474380040965e-01 -1.089065795466347275e+01 -6.615657822492044815e+00 -5.692767109722537411e-01 -6.615657822492044815e+00 -8.240272184757818863e+00
-8.856390392510940401e+00 2.990186171335194598e-01 -3.448023752529259522e-01 2.990186171335194598e-01 -1.117655265712707546e+01 -6.674441462238760892e+00 -3.448023752529259522e-01 -6.674441462238760892e+00 -8.657300975607643778e+00
-9.026080441772950991e+00 1.501545607135555127e-01 -1.041191439623740805e-01 1.501545607135555127e-01 -1.147071193546855739e+01 -6.697373554100726878e+00 -1.041191439623740805e-01 -6.697373554100726878e+00 -9.092446850083829801e+00
-9.218025326226904070e+00 3.479948253875560400e-03 1.467986208398691372e-01 3.479948253875560400e-03 -1.176107291791157117e+01 -6.689922169763237392e+00 1.467986208398691372e-01 -6.689922169763237392e+00 -9.544410796698237220e+00
-9.647974852069278739e+00 -2.647969683828653165e-01 6.542269666795554883e-01 -2.647969683828653165e-01 -1.227834304492180451e+01 -6.609457136181863923e+00 6.542269666795554883e-01 -6.609457136181863923e+00 -1.048890328316130471e+01
-9.878115318529747668e+00 -3.816772698315388235e-01 8.996886712886599247e-01 -3.816772698315388235e-01 -1.248460462253614800e+01 -6.550155175524014162e+00 8.996886712886599247e-01 -6.550155175524014162e+00 -1.097567792423249244e+01
-1.011482949543328580e+01 -4.871670576587782686e-01 1.133060394750803113e+00 -4.871670576587782686e-01 -1.264405797328153724e+01 -6.486140699546324662e+00 1.133060394750803113e+00 -6.486140699546324662e+00 -1.146717570493328076e+01
-1.035175199930667489e+01 -5.837047883285176875e-01 1.350155396733930369e+00 -5.837047883285176875e-01 -1.274949650928089895e+01 -6.423148517505731014e+00 1.350155396733930369e+00 -6.423148517505731014e+00 -1.195854687424700025e+01
-1.058596897285081262e+01 -6.734919352878718790e-01 1.547189047796681871e+00 -6.734919352878718790e-01 -1.279695645663736592e+01 -6.366069627226152328e+00 1.547189047796681871e+00 -6.366069627226152328e+00 -1.244500711603832777e+01
-1.081974214748346874e+01 -7.588314887465171799e-01 1.720647174999082596e+00 -7.588314887465171799e-01 -1.278428400694746792e+01 -6.318828203250425268e+00 1.720647174999082596e+00 -6.318828203250425268e+00 -1.292122417749321883e+01
-1.128221579477624736e+01 -9.256884896033885646e-01 1.985380792853662646e+00 -9.256884896033885646e-01 -1.258071775931036562e+01 -6.263476674448546611e+00 1.985380792853662646e+00 -6.263476674448546611e+00 -1.382585787198463301e+01
-1.151022461420676812e+01 -1.009791999587033251e+00 2.071888591935644008e+00 -1.009791999587033251e+00 -1.239736830767242992e+01 -6.256718924489961253e+00 2.071888591935644008e+00 -6.256718924489961253e+00 -1.424804158248091746e+01
-1.173894674246312242e+01 -1.094689166662746072e+00 2.125455948326639088e+00 -1.094689166662746072e+00 -1.217014727929927709e+01 -6.262936954965022451e+00 2.125455948326639088e+00 -6.262936954965022451e+00 -1.464585204692619946e+01
-1.196635534466411777e+01 -1.178576287689727886e+00 2.144427719785680697e+00 -1.178576287689727886e+00 -1.190890580145698863e+01 -6.279648733648425463e+00 2.144427719785680697e+00 -6.279648733648425463e+00 -1.501867072533971559e+01
-1.219533900978590424e+01 -1.258990548260235709e+00 2.127816591225128118e+00 -1.258990548260235709e+00 -1.162496392734213480e+01 -6.302886777064207635e+00 2.127816591225128118e+00 -6.302886777064207635e+00 -1.536584012449454661e+01
-1.242755891741626861e+01 -1.332786398766048208e+00 2.075192084354796851e+00 -1.332786398766048208e+00 -1.133150500592903853e+01 -6.328421724153308503e+00 2.075192084354796851e+00 -6.328421724153308503e+00 -1.568777910779697393e+01
-1.266197076440998082e+01 -1.396243145685669873e+00 1.986505479329301549e+00 -1.396243145685669873e+00 -1.104139117845737772e+01 -6.350833485453287963e+00 1.986505479329301549e+00 -6.350833485453287963e+00 -1.598538284587235303e+01
-1.337176232433905199e+01 -1.487989888694897012e+00 1.520860924149671778e+00 -1.487989888694897012e+00 -1.030454762708788863e+01 -6.344042964145969243e+00 1.520860924149671778e+00 -6.344042964145969243e+00 -1.673685511306304363e+01
-1.384469103609996665e+01 -1.443840929257064865e+00 1.078464817472944537e+00 -1.443840929257064865e+00 -1.000775771429626460e+01 -6.227726950394161243e+00 1.078464817472944537e+00 -6.227726950394161243e+00 -1.712886433023470545e+01
-1.407944141692879469e+01 -1.390031721447725799e+00 8.344456402982636245e-01 -1.390031721447725799e+00 -9.930248960629915800e+00 -6.125291552535057527e+00 8.344456402982636245e-01 -6.125291552535057527e+00 -1.729290330596258940e+01