ITEM: TIMESTEP
0
ITEM: NUMBER OF ATOMS
64
ITEM: BOX BOUNDS pp pp pp
0.0000000000000000e+00 1.1858000000000001e+01
0.0000000000000000e+00 1.1858000000000001e+01
0.0000000000000000e+00 1.1858000000000001e+01
ITEM: ATOMS id type x y z
1 2 4.74804 2.06958 1.06046
2 2 0.764981 2.41914 5.91261
4 1 4.97269 4.0693 2.75017
7 1 0.927452 4.04304 4.46175
8 2 2.72948 4.78368 3.7049
15 2 0.2407 2.50655 2.11096
19 1 4.8602 0.2124 1.54688
56 1 2.04173 1.22117 1.40882
9 2 6.44989 3.2905 4.20552
10 2 11.038 5.05657 5.4604
11 1 9.14871 3.8713 4.52127
12 1 7.58785 1.59778 2.79984
13 2 9.16295 1.07271 4.06425
14 1 11.3064 0.961372 3.34963
35 1 6.99681 2.65627 0.0853
40 1 10.3965 3.60358 0.5477
43 2 8.45651 3.10368 1.63533
3 2 2.61221 6.84017 0.3979
6 1 2.96187 6.81192 2.4587
16 2 0.986399 8.12845 2.68796
18 2 5.32921 6.67095 3.51104
20 2 2.57294 11.452 2.16311
22 1 1.69269 10.0613 3.45313
44 1 0.6219 6.44673 1.20093
52 1 0.3224 10.3914 0.6958
17 1 6.97154 8.16389 2.35447
24 2 9.14309 8.6146 2.47043
25 2 7.07655 11.4539 1.36294
26 1 10.5019 9.42075 4.31031
27 2 11.8339 11.0282 3.89201
49 2 6.95215 7.55699 0.1781
5 2 4.23422 1.04616 7.12379
33 1 4.72085 2.75675 5.93236
39 1 0.5418 5.56773 10.2205
46 2 5.1174 4.60921 7.04953
53 1 1.77627 0.5861 6.40526
60 1 0.1627 0.7723 9.86709
30 1 8.64752 0.9059 6.11301
34 2 7.18844 3.95799 10.3186
36 1 11.3598 3.21072 7.09302
37 2 11.2323 3.32534 10.0614
38 2 9.45638 2.73118 7.16077
42 1 8.47607 2.78672 9.22135
58 1 6.75125 5.64433 8.8055
63 2 9.04836 0.874194 10.3233
21 1 4.72099 11.4296 7.26722
23 1 5.80875 6.85847 6.22263
31 1 0.9819 9.79091 7.4341
45 2 1.11325 11.5997 11.3394
47 1 4.60374 7.2949 11.347
48 2 2.99858 10.1566 5.99636
50 1 3.13114 5.95639 8.14884
51 2 4.60896 7.18053 9.05281
54 2 1.11479 6.28549 8.14817
62 2 0.4429 11.8275 7.96787
28 1 11.3553 6.61012 6.67926
29 2 10.9247 8.76171 6.78613
32 2 7.33926 11.033 6.91932
41 2 11.184 6.15175 11.7663
55 1 8.54528 9.39882 7.31403
57 2 7.82716 7.24856 7.28153
59 1 9.10628 7.66698 11.5961
61 2 10.0854 9.69115 11.0475
64 1 8.73489 11.3448 11.4987
ITEM: TIMESTEP
100
ITEM: NUMBER OF ATOMS
64
ITEM: BOX BOUNDS pp pp pp
0.0000000000000000e+00 1.1858000000000001e+01
0.0000000000000000e+00 1.1858000000000001e+01
0.0000000000000000e+00 1.1858000000000001e+01
ITEM: ATOMS id type x y z
1 2 4.66494 2.1284 0.742244
2 2 1.1558 2.23706 5.63261
4 1 4.34387 3.5997 2.57605
7 1 0.515296 4.39705 4.09308
8 2 2.82216 4.9422 3.70668
15 2 11.807 3.60782 1.9169
19 1 4.50334 11.8317 1.19308
56 1 2.31884 1.08259 0.702194
9 2 6.08232 3.41098 3.94969
10 2 10.3631 5.15527 5.08102
11 1 8.42625 3.10497 5.17206
12 1 7.28758 1.49685 2.67133
13 2 8.54261 0.583841 4.52232
14 1 11.4277 1.26043 4.0781
35 1 7.3519 2.00469 11.753
40 1 10.5615 4.0637 0.198763
43 2 8.41322 2.82316 1.60403
3 2 3.00915 6.20904 11.7036
6 1 3.54212 7.0601 3.11061
16 2 0.947556 7.9135 2.99678
18 2 5.63896 7.64536 3.84436
20 2 2.92145 11.2382 2.78194
22 1 1.92275 10.2275 4.82178
44 1 0.768356 6.58378 1.3503
52 1 11.0221 10.252 1.7629
17 1 6.86146 7.22741 2.23167
24 2 9.1996 8.61782 2.30795
25 2 6.97189 11.3173 1.49056
26 1 10.824 8.4591 4.08442
27 2 11.4134 10.7538 4.24631
49 2 6.60695 7.26699 0.109907
5 2 4.32216 1.76337 7.01117
33 1 4.46153 3.35253 5.66513
39 1 0.953007 5.79497 10.0989
46 2 5.19955 5.18398 6.85499
53 1 2.48642 0.511408 7.42312
60 1 11.3218 0.107102 10.2692
30 1 8.21126 0.591064 7.27583
34 2 7.86414 4.74722 10.3181
36 1 -0.0961533 4.01063 7.02575
37 2 11.8103 3.62419 9.65189
38 2 8.94674 2.92957 7.28207
42 1 9.70959 3.33335 9.3796
58 1 6.59457 5.5314 8.74528
63 2 9.01175 0.977625 10.2755
21 1 6.81206 8.55212 6.68605
23 1 7.30255 5.86426 4.94271
31 1 1.16025 9.30215 7.59229
45 2 1.64127 11.6764 11.2456
47 1 4.78954 7.99972 10.6748
48 2 3.00776 9.7174 6.45567
50 1 3.83651 6.60878 7.90632
51 2 4.51772 8.3838 8.5019
54 2 0.936187 6.27458 8.10157
62 2 0.543448 11.5115 8.06597
28 1 9.99218 6.56946 6.64365
29 2 10.7054 8.44838 6.37472
32 2 7.44204 10.1503 7.95882
41 2 10.6016 6.32642 11.6065
55 1 9.8688 10.0098 8.09512
57 2 7.9167 6.67519 7.24379
59 1 8.85825 7.53008 0.17004
61 2 10.135 9.29622 10.8026
64 1 8.27685 10.4965 0.081674
ITEM: TIMESTEP
200
ITEM: NUMBER OF ATOMS
64
ITEM: BOX BOUNDS pp pp pp
0.0000000000000000e+00 1.1858000000000001e+01
0.0000000000000000e+00 1.1858000000000001e+01
0.0000000000000000e+00 1.1858000000000001e+01
ITEM: ATOMS id type x y z
1 2 5.07301 2.52933 0.211892
2 2 1.11677 2.4591 5.07741
4 1 4.78642 3.8795 2.20838
7 1 0.672086 5.20959 4.03727
8 2 3.15936 4.99515 3.65389
15 2 0.461274 3.48855 1.64895
19 1 3.71621 0.241617 0.740288
56 1 1.21046 1.57648 3.08029
9 2 6.26768 4.26875 3.92756
10 2 10.2357 5.2867 4.45162
11 1 8.4336 3.07675 4.60513
12 1 8.16406 0.38243 1.74587
13 2 7.91044 0.585588 5.28714
14 1 10.2315 11.8112 6.06193
35 1 7.20977 3.42365 0.261048
40 1 10.2908 4.29149 0.819776
43 2 8.66429 2.63539 1.86719
3 2 2.69762 5.69013 11.3423
6 1 3.28458 7.48487 4.22922
16 2 1.17742 7.5613 3.22252
18 2 6.20807 8.2769 4.81722
20 2 3.22666 11.8479 2.99271
22 1 1.70298 10.4073 3.87469
44 1 1.57374 5.60409 1.45336
52 1 11.626 9.69747 0.625473
17 1 6.59297 9.0125 2.19603
24 2 9.42602 8.20627 2.14128
25 2 6.68211 10.7643 1.04592
26 1 10.2628 7.5431 3.94112
27 2 11.3497 11.2545 3.57454
49 2 6.51955 7.75341 11.7751
5 2 4.62093 1.3771 7.56745
33 1 3.39024 3.02809 6.40947
39 1 0.701829 5.35624 9.79984
46 2 4.22244 5.631 6.98649
53 1 3.39272 11.542 7.58541
60 1 0.490112 0.032303 9.95454
30 1 6.77533 0.939785 8.08007
34 2 8.76659 4.4373 10.5787
36 1 11.6649 2.94725 7.00907
37 2 0.36042 2.92449 9.44774
38 2 8.31793 2.82451 7.28615
42 1 9.70645 2.61495 9.46406
58 1 7.11494 4.7755 8.12996
63 2 8.49898 0.855113 10.5433
21 1 6.47013 8.81675 7.63079
23 1 6.286 6.29004 5.25787
31 1 0.56722 9.18357 7.10282
45 2 1.67226 11.492 11.8648
47 1 4.27641 7.18003 11.1211
48 2 2.52319 9.40429 5.91426
50 1 3.5601 7.53406 7.40778
51 2 4.81296 8.60604 9.15349
54 2 0.786703 6.35287 7.26464
62 2 11.6709 11.2527 7.82928
28 1 10.4988 6.30802 6.68368
29 2 10.3883 8.70346 6.35958
32 2 7.717 10.1147 8.5622
41 2 11.3741 6.561 11.681
55 1 9.97484 9.8073 8.83886
57 2 8.0781 6.35248 6.76111
59 1 9.17046 7.28744 11.8554
61 2 10.3908 9.6882 10.8485
64 1 6.93487 10.1021 10.9827
ITEM: TIMESTEP
300
ITEM: NUMBER OF ATOMS
64
ITEM: BOX BOUNDS pp pp pp
0.0000000000000000e+00 1.1858000000000001e+01
0.0000000000000000e+00 1.1858000000000001e+01
0.0000000000000000e+00 1.1858000000000001e+01
ITEM: ATOMS id type x y z
1 2 5.35342 3.2767 0.571444
2 2 1.39865 2.94146 5.672
4 1 4.88357 4.12838 2.53929
7 1 1.23558 4.4659 3.72401
8 2 3.22966 5.37427 3.0567
15 2 1.04837 3.35945 1.62721
19 1 4.67065 0.786374 1.19016
56 1 1.10561 1.52718 3.49934
9 2 6.91436 4.52903 3.81198
10 2 10.7823 4.93854 4.1953
11 1 7.48982 2.47574 4.31736
12 1 8.57255 11.1676 -0.0677928
13 2 7.36621 0.161041 5.339
14 1 9.38773 10.1063 3.22838
35 1 7.42888 2.84412 0.985136
40 1 10.7299 3.32904 2.44777
43 2 9.08964 2.06821 2.37425
3 2 3.30809 5.40376 10.7841
6 1 2.09121 6.12481 5.3882
16 2 1.06245 7.97338 3.05603
18 2 5.48084 8.86294 5.10532
20 2 3.46784 0.876431 3.60866
22 1 1.87406 10.6099 3.89288
44 1 2.07611 5.46207 0.823484
52 1 0.0214999 8.76682 0.475811
17 1 6.83126 8.88772 1.66045
24 2 9.16817 8.35045 2.19482
25 2 6.39211 11.0811 1.12554
26 1 10.6286 7.11373 3.48615
27 2 11.4463 11.3478 3.09979
49 2 6.98828 7.43394 0.0189172
5 2 4.5976 0.912616 7.75318
33 1 3.75662 2.85321 7.12243
39 1 1.19985 4.78655 9.55023
46 2 3.85491 5.30364 7.04598
53 1 5.33209 11.4867 5.93464
60 1 0.599091 11.3143 10.0617
30 1 7.41948 1.26724 7.46148
34 2 8.81568 4.78339 11.0713
36 1 11.3905 1.30001 6.33958
37 2 11.6802 2.71385 9.50086
38 2 8.95205 3.02455 7.439
42 1 9.48787 2.86698 9.65498
58 1 7.81236 4.19346 9.24715
63 2 8.0736 1.20259 10.4203
21 1 6.32343 8.5055 7.03743
23 1 6.20635 6.28175 5.44977
31 1 11.8879 8.93049 5.72259
45 2 1.52966 11.0356 0.288096
47 1 5.21601 6.921 10.4173
48 2 2.46195 9.18208 5.97038
50 1 2.76704 7.90933 8.23078
51 2 4.21332 8.84358 9.35807
54 2 0.421542 6.61133 7.14857
62 2 11.8057 11.198 7.82279
28 1 9.67949 5.77659 6.31623
29 2 9.61783 8.54836 5.45081
32 2 7.37043 10.4295 8.37384
41 2 0.110657 6.51859 11.4143
55 1 9.71377 11.2089 8.64177
57 2 7.70231 6.10393 7.35102
59 1 9.33149 7.11854 11.5599
61 2 10.3148 9.99987 11.0129
64 1 5.41307 10.0264 11.2733
ITEM: TIMESTEP
400
ITEM: NUMBER OF ATOMS
64
ITEM: BOX BOUNDS pp pp pp
0.0000000000000000e+00 1.1858000000000001e+01
0.0000000000000000e+00 1.1858000000000001e+01
0.0000000000000000e+00 1.1858000000000001e+01
ITEM: ATOMS id type x y z
1 2 5.46985 3.04057 1.3956
2 2 1.43462 2.94191 5.5694
4 1 5.09241 4.82351 2.9334
7 1 1.38967 4.33032 3.58232
8 2 3.23545 6.19768 3.0003
15 2 1.11605 3.21166 1.55832
19 1 6.03275 0.583418 2.59959
56 1 2.0605 1.74145 3.74015
9 2 7.34364 4.81977 4.14316
10 2 11.0148 4.97987 3.84893
11 1 7.8657 2.47641 4.6262
12 1 7.25527 10.7215 10.9924
13 2 7.27424 0.367564 5.15847
14 1 10.6989 10.901 3.04134
35 1 7.91077 3.2695 1.26334
40 1 11.0923 2.79003 2.6137
43 2 8.96593 1.54798 2.05794
3 2 3.27589 4.9704 9.99522
6 1 1.97388 5.88367 5.73166
16 2 0.0839435 8.54225 2.77426
18 2 5.59053 8.50451 4.898
20 2 3.97497 0.645168 3.91437
22 1 2.01631 10.2676 3.95566
44 1 2.46078 5.23593 0.916677
52 1 0.171023 9.27146 0.478094
17 1 6.85273 8.75682 1.76752
24 2 9.11073 8.07067 1.42393
25 2 5.87677 10.824 0.839929
26 1 10.3 7.00904 2.92229
27 2 0.57872 11.8793 4.10343
49 2 6.48874 7.48758 11.3665
5 2 4.42351 0.928375 7.33662
33 1 3.59663 3.10739 6.88842
39 1 1.14158 5.65821 9.88271
46 2 4.04575 5.08664 6.48117
53 1 4.6615 11.0085 5.52377
60 1 0.29085 11.026 9.89083
30 1 7.14233 0.375014 7.20301
34 2 8.80453 4.50137 11.4099
36 1 11.8039 2.25858 7.8498
37 2 0.668333 2.38017 9.79842
38 2 9.44976 2.96978 7.64846
42 1 10.2293 3.0907 9.91534
58 1 7.61005 4.00202 9.05643
63 2 7.95501 1.47699 10.1072
21 1 6.48349 8.89209 7.28825
23 1 5.94563 6.64474 5.93397
31 1 11.4509 8.87453 6.64546
45 2 2.25558 10.4032 -0.0505594
47 1 4.59149 6.79158 10.0749
48 2 1.93928 9.16289 5.978
50 1 1.9509 8.96613 8.68903
51 2 3.9838 8.9831 9.28064
54 2 11.8866 6.71674 7.66525
62 2 11.1056 10.9065 7.83551
28 1 9.79128 6.058 6.25344
29 2 9.65753 7.92385 5.13599
32 2 7.45642 10.4458 8.85899
41 2 0.492834 7.0262 11.6093
55 1 9.28927 11.6891 9.30058
57 2 6.91212 6.57349 7.77502
59 1 9.28914 6.9033 11.3527
61 2 10.2054 10.1804 11.1204
64 1 4.55091 10.6784 11.0645
ITEM: TIMESTEP
500
ITEM: NUMBER OF ATOMS
64
ITEM: BOX BOUNDS pp pp pp
0.0000000000000000e+00 1.1858000000000001e+01
0.0000000000000000e+00 1.1858000000000001e+01
0.0000000000000000e+00 1.1858000000000001e+01
ITEM: ATOMS id type x y z
1 2 5.48885 2.80447 2.32408
2 2 1.54673 3.63852 5.38005
4 1 4.76312 4.6932 3.74795
7 1 1.00039 5.09618 2.9711
8 2 3.05258 6.08536 2.62578
15 2 1.58928 2.91717 1.80434
19 1 6.11796 0.838579 2.80593
56 1 2.471 1.00779 3.3619
9 2 7.24828 4.9053 4.31207
10 2 10.7132 4.79277 3.67856
11 1 8.38925 2.7875 5.38856
12 1 8.25943 10.2976 0.686633
13 2 7.48695 0.746767 5.35698
14 1 11.048 0.190435 2.76672
35 1 7.63729 3.35021 1.26518
40 1 12.0079 2.85028 3.54603
43 2 9.50388 1.66005 2.24327
3 2 3.31944 4.83429 9.90576
6 1 2.37249 6.73209 6.88528
16 2 11.6884 9.86731 2.66877
18 2 5.94696 8.81217 5.01611
20 2 4.12735 11.4314 3.323
22 1 2.02598 10.3122 4.49916
44 1 2.50227 5.17487 0.60799
52 1 0.027945 8.80798 0.520191
17 1 6.08081 8.32622 1.88722
24 2 8.59191 7.53759 1.04197
25 2 6.05626 10.5693 0.89906
26 1 9.28805 6.68985 3.39156
27 2 0.592158 0.534433 4.34262
49 2 5.43214 7.45622 11.1551
5 2 4.27884 0.787995 7.54261
33 1 3.53439 2.68508 6.26629
39 1 1.31709 5.60005 9.84535
46 2 4.08724 5.28058 5.9982
53 1 5.96277 11.1391 5.95582
60 1 0.464461 0.54688 11.6535
30 1 5.8103 0.281038 9.05722
34 2 9.62103 4.6764 10.8682
36 1 0.297826 2.59277 7.50852
37 2 0.515403 2.053 9.85337
38 2 9.92959 3.63409 7.31262
42 1 10.3353 2.52175 10.7957
58 1 8.55141 4.2296 8.735
63 2 7.83393 1.62465 10.0975
21 1 6.65617 8.19059 7.90106
23 1 6.10504 6.64915 5.6763
31 1 11.0452 10.0058 5.9682
45 2 1.66811 10.4128 10.9081
47 1 4.50094 6.38936 9.1017
48 2 1.19454 8.78747 5.90562
50 1 1.365 10.3196 8.67068
51 2 3.97205 8.65052 8.0007
54 2 0.303356 6.25249 7.82825
62 2 11.3374 11.3294 7.84635
28 1 10.4206 5.86908 6.4379
29 2 9.52816 7.54554 5.84033
32 2 7.0923 10.2879 8.5281
41 2 0.63574 6.58735 11.7824
55 1 9.34744 10.9235 9.06149
57 2 7.16622 5.99602 8.60162
59 1 7.96831 6.57873 10.8807
61 2 10.3922 11.0935 11.6206
64 1 4.1575 9.22095 10.831
ITEM: TIMESTEP
600
ITEM: NUMBER OF ATOMS
64
ITEM: BOX BOUNDS pp pp pp
0.0000000000000000e+00 1.1858000000000001e+01
0.0000000000000000e+00 1.1858000000000001e+01
0.0000000000000000e+00 1.1858000000000001e+01
ITEM: ATOMS id type x y z
1 2 5.40956 2.32329 2.55529
2 2 1.75046 3.679 5.88135
4 1 4.9869 5.07743 3.88378
7 1 1.24042 5.23048 2.55281
8 2 3.71311 6.09878 2.60004
15 2 1.59583 2.69759 1.56093
19 1 6.35086 11.2682 3.34845
56 1 3.63689 1.2084 2.5776
9 2 7.21799 5.13648 4.17881
10 2 10.9335 5.15991 3.68306
11 1 9.0363 2.86065 4.50174
12 1 9.21059 9.52052 0.857809
13 2 7.44565 1.05742 5.03911
14 1 10.9847 0.314515 2.54818
35 1 7.44943 3.45422 1.97625
40 1 12.0529 2.85521 3.40912
43 2 9.60566 2.25603 2.40252
3 2 3.44463 3.98756 9.82454
6 1 2.58998 6.80708 6.29601
16 2 11.4569 9.65559 1.9111
18 2 6.34952 9.09303 5.13974
20 2 3.49141 10.8502 3.08594
22 1 1.82161 11.0219 4.42288
44 1 2.86783 5.30823 0.73878
52 1 1.13011 8.74326 0.408057
17 1 5.78119 9.12455 0.840832
24 2 7.66801 7.42376 1.67358
25 2 7.28906 10.7716 1.50205
26 1 8.23768 7.36143 3.75497
27 2 0.400666 0.660621 4.59965
49 2 4.63124 7.21439 11.4522
5 2 3.97342 0.782536 7.59698
33 1 3.02222 3.8504 7.39423
39 1 11.471 4.62797 9.92133
46 2 4.55208 5.11662 6.20938
53 1 6.54965 11.3565 6.21709
60 1 0.832787 0.53913 11.2369
30 1 5.55729 0.353815 9.01233
34 2 9.50504 4.75646 10.8363
36 1 11.7832 1.97931 7.03726
37 2 0.0172189 2.39486 9.79639
38 2 9.98028 3.5607 6.58234
42 1 10.1395 2.42401 11.9258
58 1 8.52111 4.12059 8.34531
63 2 7.84765 2.02528 9.87744
21 1 7.2665 8.74751 7.51895
23 1 6.69724 6.44051 6.14179
31 1 10.528 9.57047 6.29345
45 2 1.85623 10.1718 10.3177
47 1 4.86298 5.91972 9.30172
48 2 1.21091 8.97223 5.60236
50 1 1.54663 11.1747 7.48038
51 2 4.29491 7.76262 7.94164
54 2 1.02171 5.97568 8.0196
62 2 10.9336 11.4559 7.32157
28 1 11.7547 4.81946 6.14673
29 2 9.01811 8.01688 6.36697
32 2 7.36681 10.6544 8.73881
41 2 0.733625 6.14153 0.389032
55 1 9.16522 0.217721 9.02578
57 2 7.00372 5.98273 8.77651
59 1 7.43735 6.29754 11.3259
61 2 9.89929 0.0423407 11.7383
64 1 2.68288 7.57288 9.95152
ITEM: TIMESTEP
700
ITEM: NUMBER OF ATOMS
64
ITEM: BOX BOUNDS pp pp pp
0.0000000000000000e+00 1.1858000000000001e+01
0.0000000000000000e+00 1.1858000000000001e+01
0.0000000000000000e+00 1.1858000000000001e+01
ITEM: ATOMS id type x y z
1 2 5.23406 2.17837 2.52211
2 2 1.22744 2.99022 6.15646
4 1 4.18126 3.92302 4.05715
7 1 1.2131 6.29758 1.98116
8 2 3.58277 5.68734 2.95376
15 2 1.39191 2.36521 1.36732
19 1 5.93983 11.8501 3.5159
56 1 3.16417 1.195 1.82062
9 2 7.77979 5.14712 4.36585
10 2 0.443713 5.93824 4.23937
11 1 9.18155 2.30684 4.83412
12 1 9.89942 10.3055 0.619807
13 2 7.28459 0.993655 5.12386
14 1 10.7266 1.43045 1.77461
35 1 7.2451 3.77856 2.78129
40 1 0.419073 3.04853 3.89617
43 2 9.13837 2.68016 2.17472
3 2 3.90162 3.65416 10.4901
6 1 3.13917 6.70253 6.56536
16 2 11.6578 9.32851 1.59422
18 2 6.19001 9.80811 5.25374
20 2 3.38974 10.7101 1.99481
22 1 0.416413 9.8329 3.83658
44 1 3.43718 5.23434 0.429498
52 1 1.94978 10.3574 0.266833
17 1 5.86043 9.21845 1.57301
24 2 7.19464 7.27005 1.36184
25 2 7.66679 10.9866 1.96469
26 1 7.94834 7.58284 4.3583
27 2 11.6056 0.632417 3.76163
49 2 4.24968 7.08077 11.2884
5 2 3.83905 0.387799 7.60264
33 1 3.31225 2.41591 7.60323
39 1 1.54143 3.93386 10.0664
46 2 4.62198 4.38912 6.74439
53 1 5.93876 0.0627493 6.78712
60 1 0.608975 11.8071 9.13452
30 1 5.16121 0.651857 9.53502
34 2 9.16907 4.83816 11.4748
36 1 11.2563 1.48382 6.47397
37 2 11.6599 2.40468 9.21642
38 2 9.56495 3.31775 6.87895
42 1 9.10601 2.52412 11.6971
58 1 9.38776 5.03759 9.13042
63 2 7.22553 2.56314 9.22773
21 1 7.29183 8.91859 7.41808
23 1 7.25655 4.38623 6.3612
31 1 11.2111 9.28299 7.23292
45 2 1.52667 10.011 10.021
47 1 4.8343 5.68105 9.34708
48 2 1.64425 9.45164 6.18337
50 1 3.10827 9.7255 7.68504
51 2 4.26992 8.03195 8.33534
54 2 1.25028 6.13153 8.20385
62 2 10.4853 11.4916 7.69017
28 1 11.8905 4.88063 6.79828
29 2 9.45508 7.64114 6.49769
32 2 7.02666 11.0213 8.64693
41 2 1.39191 6.13545 11.4365
55 1 9.04151 1.49297 8.6379
57 2 7.30382 6.15709 8.69709
59 1 7.45232 6.54701 10.7955
61 2 10.6957 0.563779 11.4233
64 1 2.43919 7.70771 10.2297
ITEM: TIMESTEP
800
ITEM: NUMBER OF ATOMS
64
ITEM: BOX BOUNDS pp pp pp
0.0000000000000000e+00 1.1858000000000001e+01
0.0000000000000000e+00 1.1858000000000001e+01
0.0000000000000000e+00 1.1858000000000001e+01
ITEM: ATOMS id type x y z
1 2 5.02699 2.30884 2.83092
2 2 1.54473 2.58843 5.28171
4 1 3.62938 3.66484 4.61999
7 1 1.55007 6.93592 2.53686
8 2 3.46346 5.23999 2.66277
15 2 1.4423 2.78988 1.45575
19 1 6.85339 1.30059 3.15038
56 1 3.50029 1.1365 1.55243
9 2 7.43974 4.96585 4.92718
10 2 0.870601 5.87862 4.8265
11 1 9.39176 2.42121 5.02537
12 1 9.79752 10.9134 1.89755
13 2 7.07921 1.71431 5.84959
14 1 11.0475 2.29938 1.63347
35 1 6.63656 5.32949 2.89832
40 1 1.69837 4.34088 3.08374
43 2 8.85738 2.9448 1.89316
3 2 4.04867 3.3851 10.691
6 1 2.19155 7.28537 5.79061
16 2 0.432673 9.13685 2.30685
18 2 6.15414 9.15484 5.30283
20 2 3.73471 10.5899 0.581345
22 1 0.63869 10.5799 3.96826
44 1 3.39801 5.09925 0.189225
52 1 1.47222 9.89114 0.232534
17 1 5.87033 9.25634 1.50816
24 2 7.27009 7.30162 2.19238
25 2 7.42433 10.8187 1.71357
26 1 8.02467 7.33614 4.59867
27 2 10.4931 0.351212 3.65061
49 2 5.18342 6.94978 11.1665
5 2 3.94766 0.668642 8.02111
33 1 3.21592 3.05311 8.57133
39 1 0.712761 4.47313 10.0925
46 2 4.58619 4.28161 6.81191
53 1 6.04749 11.1706 6.56023
60 1 -0.178519 0.37631 9.54583
30 1 5.55492 0.454491 9.51252
34 2 9.25557 5.09812 11.2167
36 1 11.8855 1.25441 6.88994
37 2 0.315559 2.62945 9.05197
38 2 9.78718 3.35246 6.77699
42 1 8.54546 3.01203 11.3862
58 1 9.42591 5.07541 8.94773
63 2 7.22425 2.70693 9.37995
21 1 7.17468 8.31067 7.29838
23 1 6.97441 4.09389 6.66763
31 1 11.4939 9.11203 7.57588
45 2 1.39562 10.0924 9.54075
47 1 5.03905 5.9024 8.92976
48 2 1.29115 9.57644 5.89853
50 1 3.15211 10.2692 7.65019
51 2 4.13872 7.85461 7.76726
54 2 1.12774 5.98123 8.16661
62 2 10.4137 11.2423 7.70754
28 1 11.6119 4.73534 6.51109
29 2 9.54014 7.98443 6.19087
32 2 7.05486 10.7329 8.73134
41 2 1.27266 6.09726 11.8657
55 1 8.33859 0.842131 7.84153
57 2 7.47147 6.35536 8.58091
59 1 7.37213 6.32051 11.6795
61 2 10.3072 0.144635 11.6675
64 1 2.25407 6.96903 9.84126
ITEM: TIMESTEP
900
ITEM: NUMBER OF ATOMS
64
ITEM: BOX BOUNDS pp pp pp
0.0000000000000000e+00 1.1858000000000001e+01
0.0000000000000000e+00 1.1858000000000001e+01
0.0000000000000000e+00 1.1858000000000001e+01
ITEM: ATOMS id type x y z
1 2 5.01887 2.17844 2.93503
2 2 1.92665 1.77543 4.79111
4 1 3.52663 2.04968 5.60018
7 1 1.88182 7.19702 2.54719
8 2 3.84288 5.91222 2.53729
15 2 1.04924 2.58844 1.21649
19 1 7.1228 1.23551 2.48339
56 1 3.31097 1.96643 0.465422
9 2 7.25374 4.78239 5.16824
10 2 0.724051 5.87927 4.46339
11 1 8.49202 3.09559 4.84626
12 1 8.89054 10.79 2.42298
13 2 6.89629 1.23342 6.04029
14 1 10.9843 1.58373 1.75465
35 1 5.56381 4.33159 2.81059
40 1 1.78746 3.71105 3.15835
43 2 8.42554 2.99734 2.03806
3 2 3.70445 3.36374 10.8652
6 1 0.805119 7.54463 6.53615
16 2 0.919738 9.28513 2.37294
18 2 6.27304 8.96015 5.59709
20 2 4.13184 11.1087 11.6562
22 1 11.8383 10.6173 4.0347
44 1 3.60184 5.70043 0.142062
52 1 2.02339 9.74574 0.417872
17 1 5.87048 8.89806 1.94834
24 2 7.46937 7.47045 1.9331
25 2 6.74295 11.0259 1.63328
26 1 7.66129 7.13859 4.28348
27 2 9.75489 0.324213 4.07398
49 2 5.20271 6.68488 10.9788
5 2 4.03915 0.205148 7.87138
33 1 3.41817 2.21261 9.00594
39 1 0.667889 5.11718 10.9738
46 2 4.13702 4.39274 7.13884
53 1 6.10819 10.8368 6.56335
60 1 11.7025 11.8786 9.85895
30 1 5.16449 11.3524 9.54343
34 2 9.57859 5.26262 10.7071
36 1 0.294517 1.86931 7.24586
37 2 0.879983 1.99114 9.37834
38 2 10.7321 3.68972 6.83689
42 1 8.50609 3.48933 11.3864
58 1 9.32384 4.42257 8.57852
63 2 8.25526 2.05075 9.31418
21 1 7.91979 8.4537 7.3851
23 1 6.1431 3.57616 6.81299
31 1 11.1642 10.3983 6.5657
45 2 0.755789 9.63969 9.85003
47 1 5.16318 6.70007 7.75757
48 2 1.2717 9.92673 5.8183
50 1 2.41033 10.5401 7.72751
51 2 3.36497 8.21339 7.82736
54 2 0.748352 6.07163 8.56275
62 2 10.7481 0.363187 7.58381
28 1 0.746215 4.55642 6.54151
29 2 10.0145 8.49464 6.29468
32 2 7.15535 10.4317 8.65463
41 2 1.67151 6.84563 0.141944
55 1 8.26519 0.506179 7.82301
57 2 7.40805 6.25827 8.23457
59 1 7.50957 6.36778 10.8909
61 2 10.2251 11.7932 0.336796
64 1 2.74144 7.60385 10.0654
ITEM: TIMESTEP
1000
ITEM: NUMBER OF ATOMS
64
ITEM: BOX BOUNDS pp pp pp
0.0000000000000000e+00 1.1858000000000001e+01
0.0000000000000000e+00 1.1858000000000001e+01
0.0000000000000000e+00 1.1858000000000001e+01
ITEM: ATOMS id type x y z
1 2 4.02932 2.28856 2.79361
2 2 1.10141 1.3891 5.0874
4 1 4.30481 1.3837 6.37372
7 1 1.56266 7.6791 2.53637
8 2 4.45406 6.27937 2.75108
15 2 0.746426 2.68933 1.43708
19 1 6.26991 0.946341 2.64643
56 1 3.18757 1.79432 0.567729
9 2 7.27221 4.47919 4.98731
10 2 1.09305 5.78012 4.10029
11 1 8.54321 2.84026 4.77192
12 1 8.5228 9.40866 0.639861
13 2 7.15262 1.44428 6.08382
14 1 10.5736 1.63686 2.08464
35 1 5.30727 4.27494 2.22555
40 1 1.7718 2.82077 3.61901
43 2 8.55689 2.94132 2.06998
3 2 4.33998 3.8091 11.774
6 1 0.0760537 8.67296 7.25579
16 2 1.55678 10.1033 2.27926
18 2 6.48739 8.16419 5.29018
20 2 3.23078 11.6386 11.191
22 1 0.978577 11.483 3.93448
44 1 4.14053 6.20586 0.220514
52 1 1.42632 10.2639 -0.240413
17 1 5.87053 9.02875 2.48986
24 2 7.71641 7.50174 1.67071
25 2 6.51791 10.984 1.71395
26 1 7.46913 6.60555 3.98758
27 2 9.87932 11.6738 3.92844
49 2 5.38704 7.23058 10.4092
5 2 3.93067 11.4919 7.36784
33 1 3.44544 3.27629 9.69735
39 1 0.781392 4.76014 11.7035
46 2 3.80378 3.48284 7.46959
53 1 5.91483 10.271 6.73496
60 1 10.868 0.0954229 10.3375
30 1 4.63794 9.4545 9.93704
34 2 9.84843 5.04321 10.9419
36 1 4.96481e-05 2.21927 7.23053
37 2 1.39257 1.73182 9.64964
38 2 10.741 3.82529 6.21113
42 1 9.35117 3.16291 11.8306
58 1 10.2866 4.46987 8.25327
63 2 8.42692 2.71916 9.41057
21 1 8.11552 8.21499 7.05417
23 1 7.22764 3.66569 7.65383
31 1 10.3795 10.5116 5.83956
45 2 0.261729 9.72604 9.90696
47 1 5.17984 6.90133 8.10698
48 2 1.01908 10.2058 6.13995
50 1 1.79192 11.8415 8.14811
51 2 3.52746 8.40022 8.24572
54 2 0.598108 6.2677 8.12795
62 2 10.5637 0.20547 8.0157
28 1 2.05571 5.86896 6.22184
29 2 10.0715 8.3345 6.12724
32 2 7.44611 10.2772 8.69061
41 2 1.89092 6.89529 11.829
55 1 7.88912 0.679335 8.16029
57 2 7.23206 5.91328 8.09407
59 1 7.72761 6.2319 10.6371
61 2 10.339 11.8062 0.525436
64 1 1.59823 7.9497 9.5077
ITEM: TIMESTEP
1100
ITEM: NUMBER OF ATOMS
64
ITEM: BOX BOUNDS pp pp pp
0.0000000000000000e+00 1.1858000000000001e+01
0.0000000000000000e+00 1.1858000000000001e+01
0.0000000000000000e+00 1.1858000000000001e+01
ITEM: ATOMS id type x y z
1 2 3.78535 2.05102 3.49054
2 2 1.21512 1.87946 5.62258
15 2 0.367061 2.87166 1.60722
56 1 2.93443 2.06174 1.32854
10 2 1.76048 5.99245 3.70893
35 1 4.81652 4.47134 3.04692
40 1 0.869674 3.21665 3.75936
19 1 6.5538 0.983687 2.69186
9 2 6.9044 4.41204 4.09333
11 1 8.66807 2.43809 4.9105
14 1 10.2886 0.945384 1.98905
43 2 8.48672 1.99186 2.17118
42 1 9.22335 3.07987 11.5577
7 1 2.87342 7.6256 2.4068
8 2 4.78651 6.75935 2.47234
16 2 2.12959 9.92921 2.62074
22 1 0.849771 11.1378 4.13648
44 1 4.26467 6.06178 0.492772
17 1 6.81568 8.66704 2.86514
12 1 8.65962 11.0001 1.23398
18 2 6.18456 8.35567 5.34377
24 2 8.57867 7.30597 1.79723
25 2 6.29408 10.7098 1.93134
26 1 8.19482 6.42669 4.07366
27 2 10.4628 11.4631 4.01349
31 1 9.83586 10.2085 6.14592
61 2 10.4394 0.140265 -0.260004
4 1 4.4681 2.05094 5.69324
3 2 4.53445 3.91789 0.0199182
33 1 3.15957 3.08724 9.70761
39 1 11.9246 5.44493 1.21142
46 2 3.90337 3.60164 7.47089
37 2 0.773663 2.38334 9.10809
50 1 1.80109 0.00808929 7.04654
28 1 1.26801 5.63647 5.95282
13 2 7.25072 1.3696 6.0508
60 1 11.9815 0.281852 9.50824
34 2 10.3969 5.34576 11.0266
36 1 11.3571 2.17572 7.16285
38 2 9.93074 3.95776 6.21054
58 1 10.2463 5.34401 8.70556
63 2 8.03773 2.84809 9.23078
23 1 7.68552 3.64255 7.10807
62 2 10.1484 0.285446 7.7933
55 1 7.4164 0.628155 8.07475
57 2 7.90878 5.94148 8.16766
20 2 2.90572 11.8839 11.2616
52 1 1.2734 10.7302 0.375986
49 2 6.2546 7.45185 11.2337
5 2 4.11317 11.6612 6.71835
53 1 5.07638 9.44375 7.13405
30 1 4.26421 10.6193 9.31076
45 2 0.231796 9.6429 9.72039
47 1 5.35622 6.724 9.35673
48 2 0.667828 9.98484 6.40289
51 2 3.68199 8.11681 8.42105
54 2 0.329946 6.341 7.99665
41 2 1.8159 6.48501 0.345274
64 1 1.59431 7.90682 10.0573
6 1 11.3789 8.35385 7.54789
21 1 7.48319 7.8508 6.88416
29 2 9.59313 7.86096 5.82351
32 2 7.10705 9.60822 8.19757
59 1 8.37668 6.11636 10.88
ITEM: TIMESTEP
1200
ITEM: NUMBER OF ATOMS
64
ITEM: BOX BOUNDS pp pp pp
0.0000000000000000e+00 1.1858000000000001e+01
0.0000000000000000e+00 1.1858000000000001e+01
0.0000000000000000e+00 1.1858000000000001e+01
ITEM: ATOMS id type x y z
1 2 4.22397 2.59069 3.66125
2 2 1.03219 2.07044 5.79015
15 2 0.449476 3.2054 1.86718
56 1 2.77426 2.32623 1.20701
10 2 1.54407 5.29361 4.20301
35 1 4.94888 4.57369 3.26317
40 1 2.01187 2.72395 3.94374
19 1 6.63992 0.737118 3.53208
9 2 7.03224 4.69819 3.52727
11 1 8.5264 3.06641 3.71828
14 1 10.8011 1.33876 1.78512
43 2 8.33154 1.3836 2.07071
42 1 10.1535 2.43041 10.4232
7 1 2.45142 6.8104 2.25464
8 2 4.54974 6.58967 2.44043
16 2 2.21638 10.0091 2.36691
22 1 0.270313 9.50056 3.63405
44 1 4.63104 5.71769 0.0489908
17 1 5.26675 8.68309 2.42713
12 1 8.39267 11.1891 0.797515
18 2 6.18803 8.13348 4.7244
24 2 10.2937 7.34303 2.46034
25 2 6.37322 10.697 2.20449
26 1 8.63934 6.52112 4.37045
27 2 10.7742 11.7228 3.3531
31 1 10.2176 10.3738 5.49946
61 2 10.5222 0.245271 11.7324
4 1 4.41228 2.21184 5.98778
3 2 4.07816 3.53004 11.6008
33 1 2.71589 3.02723 8.68049
39 1 11.6434 5.39262 1.01891
46 2 4.4621 4.28359 7.56255
37 2 11.7404 2.73451 9.11455
50 1 1.8464 11.8001 5.9903
28 1 1.52373 6.12803 6.19502
13 2 6.95984 1.53397 5.47914
60 1 11.7485 11.5879 9.36811
34 2 9.95473 4.99845 11.182
36 1 10.6178 1.81775 6.13141
38 2 9.34757 3.99363 6.16106
58 1 10.4446 4.85832 8.5465
63 2 7.81358 2.00044 9.76948
23 1 7.23076 3.92842 7.81824
62 2 9.90367 11.7381 7.1519
55 1 7.16031 0.444343 8.33594
57 2 7.96963 6.37188 8.59877
20 2 2.66424 0.155347 11.1544
52 1 1.45115 10.4388 0.32522
49 2 6.42731 7.60946 11.5454
5 2 4.01694 11.8213 6.83178
53 1 5.58861 10.1371 6.07501
30 1 3.89561 9.74608 10.5843
45 2 0.64598 9.24331 10.2728
47 1 6.08241 7.95481 9.42377
48 2 0.673484 9.75543 6.15135
51 2 3.85777 7.77667 9.12176
54 2 0.350241 6.25725 8.16336
41 2 2.14192 6.98024 0.255413
64 1 2.05319 6.7096 9.76828
6 1 11.1294 8.24037 7.9415
21 1 7.62191 8.40161 6.62952
29 2 9.71716 8.18388 5.6387
32 2 6.4724 10.1344 8.21037
59 1 8.63352 6.53791 0.488615
ITEM: TIMESTEP
1300
ITEM: NUMBER OF ATOMS
64
ITEM: BOX BOUNDS pp pp pp
0.0000000000000000e+00 1.1858000000000001e+01
0.0000000000000000e+00 1.1858000000000001e+01
0.0000000000000000e+00 1.1858000000000001e+01
ITEM: ATOMS id type x y z
1 2 3.76996 2.55293 3.3337
2 2 0.657249 1.76227 6.05535
15 2 0.658165 2.97648 1.64652
56 1 3.1161 2.52492 1.08085
10 2 1.67845 5.66708 4.95912
35 1 5.39236 5.03888 3.45259
40 1 1.77721 3.63632 3.78506
19 1 7.03479 0.795972 3.18511
9 2 8.2694 5.878 3.06643
11 1 8.6566 3.84741 4.28185
14 1 10.9162 1.51497 2.12464
43 2 8.25639 2.79312 2.39683
42 1 9.39665 2.20478 10.5284
7 1 1.94811 6.76151 2.75551
8 2 4.13129 6.18007 2.23829
16 2 2.35446 9.38122 2.29573
22 1 0.551833 9.10478 3.78399
44 1 3.74321 6.82848 11.8356
17 1 5.33674 8.44824 2.87984
12 1 7.6701 11.1565 0.353055
18 2 6.15473 8.64107 5.05832
24 2 11.637 6.93104 2.5235
25 2 6.41839 10.5858 1.87699
26 1 9.88421 7.36266 3.96688
27 2 11.4269 11.1523 3.19127
31 1 10.4983 10.3167 5.47087
61 2 10.5333 -0.00312555 11.6296
4 1 4.70836 1.95578 5.74327
3 2 3.6364 4.177 11.0923
33 1 3.80135 2.96319 8.86848
39 1 11.3219 5.91187 0.231585
46 2 4.80382 3.95032 7.23387
37 2 11.3033 2.5281 9.32703
50 1 1.74032 11.6626 5.5278
28 1 2.51818 5.85555 6.96749
13 2 6.69863 1.18517 5.4694
60 1 0.336595 0.85575 9.97814
34 2 9.59275 4.59353 11.4758
36 1 10.7311 2.18604 7.18507
38 2 9.1734 3.89737 6.66336
58 1 10.2111 5.22563 8.62367
63 2 7.3753 1.72672 9.4338
23 1 6.95424 4.29103 8.28364
62 2 9.92835 11.606 7.28358
55 1 7.68786 0.23064 7.91539
57 2 7.70776 6.54484 8.50149
20 2 2.39971 11.6436 10.7213
52 1 0.789474 10.934 0.930801
49 2 6.77933 7.69147 0.329216
5 2 3.55742 0.358758 6.75481
53 1 5.01638 10.1884 6.50881
30 1 2.53413 9.76293 9.44915
45 2 0.173106 9.39042 9.46212
47 1 6.47318 8.08713 10.0295
48 2 1.38331 9.34627 5.6248
51 2 3.99897 7.72248 9.7244
54 2 0.437301 6.19323 8.14633
41 2 1.51298 6.53093 0.0522517
64 1 1.51318 7.08306 9.98404
6 1 11.7096 8.62355 7.54668
21 1 7.75776 8.42779 7.12983
29 2 9.69574 8.3616 6.12892
32 2 6.69949 10.0281 8.16383
59 1 7.55801 5.37982 0.998649
ITEM: TIMESTEP
1400
ITEM: NUMBER OF ATOMS
64
ITEM: BOX BOUNDS pp pp pp
0.0000000000000000e+00 1.1858000000000001e+01
0.0000000000000000e+00 1.1858000000000001e+01
0.0000000000000000e+00 1.1858000000000001e+01
ITEM: ATOMS id type x y z
1 2 3.91991 2.8114 3.24591
2 2 0.404162 1.9342 5.24708
15 2 0.687114 2.83572 1.85017
56 1 2.34322 4.325 0.556524
10 2 2.34616 5.64884 5.25512
35 1 5.57054 4.63921 3.4993
40 1 1.67255 3.16304 4.16549
19 1 6.62372 1.28437 3.15679
9 2 8.14965 6.36428 3.48026
11 1 9.18151 4.8029 4.82151
14 1 10.2419 2.0913 1.73857
43 2 8.42254 2.84566 2.87082
42 1 8.90878 2.44372 10.4236
7 1 4.02976 7.38177 4.12452
8 2 4.65205 6.00067 2.37231
16 2 3.04445 8.96198 1.74673
22 1 1.30298 8.93657 3.31899
44 1 3.27078 6.42824 11.0674
17 1 6.15799 9.11136 1.99276
12 1 7.67012 11.0334 11.3392
18 2 5.45449 8.75567 4.91746
24 2 11.8326 6.77306 2.98721
25 2 6.83755 11.296 1.46827
26 1 9.78723 8.53093 3.57019