LAMMPS (23 Jun 2022 - Update 1)
OMP_NUM_THREADS environment is not set. Defaulting to 1 thread. (src/comm.cpp:98)
  using 1 OpenMP thread(s) per MPI task
Loaded 1 plugins from /opt/deepmd-kit-2.1.5/lib/deepmd_lmp
# this input script is for simulating a 3d LiCl melt at 900K using LAMMPS.

units           metal
boundary        p p p
atom_style      atomic

read_data	licl.data
Reading data file ...
  orthogonal box = (0 0 0) to (11.858 11.858 11.858)
  1 by 1 by 1 MPI processor grid
  reading atoms ...
  64 atoms
  read_data CPU = 0.003 seconds
mass 		1 6.94
mass		2 35.45

pair_style	deepmd licl-compress.pb
Summary of lammps deepmd module ...
  >>> Info of deepmd-kit:
  installed to:       /opt/deepmd-kit-2.1.5
  source:             v2.1.5
  source branch:       HEAD
  source commit:      6e3d4a62
  source commit at:   2022-09-23 16:10:28 +0800
  surpport model ver.:1.1 
  build float prec:   double
  build variant:      cuda
  build with tf inc:  /opt/deepmd-kit-2.1.5/include;/opt/deepmd-kit-2.1.5/include
  build with tf lib:  /opt/deepmd-kit-2.1.5/lib/libtensorflow_cc.so;/opt/deepmd-kit-2.1.5/lib/libtensorflow_framework.so
  set tf intra_op_parallelism_threads: 775168053
  set tf inter_op_parallelism_threads: 858796339
  >>> Info of lammps module:
  use deepmd-kit at:  /opt/deepmd-kit-2.1.5pair_coeff  	* *

velocity        all create 900 23456789

fix             1 all nvt temp 900 900 0.5
timestep        0.001


# rdf calculation
compute 	 rdf all rdf 100 1 1 1 2 2 2
fix 		 2 all ave/time 100 1 100 c_rdf[*] file licl.rdf mode vector

thermo_style    custom step temp pe ke etotal press lx ly lz vol
thermo          100
dump		1 all custom 100 licl.dump id type x y z

run             100000

CITE-CITE-CITE-CITE-CITE-CITE-CITE-CITE-CITE-CITE-CITE-CITE-CITE

Your simulation uses code contributions which should be cited:

- USER-DEEPMD package:

@article{Wang_ComputPhysCommun_2018_v228_p178,
  author = {Wang, Han and Zhang, Linfeng and Han, Jiequn and E, Weinan},
  doi = {10.1016/j.cpc.2018.03.016},
  url = {https://doi.org/10.1016/j.cpc.2018.03.016},
  year = 2018,
  month = {jul},
  publisher = {Elsevier {BV}},
  volume = 228,
  journal = {Comput. Phys. Commun.},
  title = {{DeePMD-kit: A deep learning package for many-body potential energy representation and molecular dynamics}},
  pages = {178--184}
}

CITE-CITE-CITE-CITE-CITE-CITE-CITE-CITE-CITE-CITE-CITE-CITE-CITE

Generated 0 of 1 mixed pair_coeff terms from geometric mixing rule
Neighbor list info ...
  update every 1 steps, delay 10 steps, check yes
  max neighbors/atom: 2000, page size: 100000
  master list distance cutoff = 9
  ghost atom cutoff = 9
  binsize = 4.5, bins = 3 3 3
  2 neighbor lists, perpetual/occasional/extra = 1 1 0
  (1) pair deepmd, perpetual
      attributes: full, newton on
      pair build: full/bin/atomonly
      stencil: full/bin/3d
      bin: standard
  (2) compute rdf, occasional, half/full from (1)
      attributes: half, newton on
      pair build: halffull/newton
      stencil: none
      bin: none
Per MPI rank memory allocation (min/avg/max) = 4.977 | 4.977 | 4.977 Mbytes
   Step          Temp          PotEng         KinEng         TotEng         Press            Lx             Ly             Lz           Volume    
         0   900           -19445.396      7.3290502     -19438.067      35597.531      11.858         11.858         11.858         1667.379     
       100   1219.0804     -19448.168      9.9274459     -19438.241      7138.2161      11.858         11.858         11.858         1667.379     
       200   1378.8245     -19449.944      11.228305     -19438.716     -1474.0315      11.858         11.858         11.858         1667.379     
       300   1165.5138     -19448.995      9.4912322     -19439.504     -7136.8997      11.858         11.858         11.858         1667.379     
       400   1120.9027     -19449.317      9.127947      -19440.189     -4356.8899      11.858         11.858         11.858         1667.379     
       500   1216.5543     -19450.655      9.9068747     -19440.748     -4039.0036      11.858         11.858         11.858         1667.379     
       600   1042.1403     -19449.665      8.4865538     -19441.178     -5365.7831      11.858         11.858         11.858         1667.379     
       700   1031.3221     -19450.002      8.3984571     -19441.604     -7134.5385      11.858         11.858         11.858         1667.379     
       800   1180.6819     -19451.583      9.6147524     -19441.968     -6229.9955      11.858         11.858         11.858         1667.379     
       900   1076.1499     -19451.172      8.7635077     -19442.408      567.75236      11.858         11.858         11.858         1667.379     
      1000   965.51807     -19450.71       7.8625893     -19442.848     -2930.112       11.858         11.858         11.858         1667.379     
      1100   967.61943     -19451.123      7.8797016     -19443.243     -6415.8178      11.858         11.858         11.858         1667.379     
      1200   862.15527     -19450.635      7.0208658     -19443.615     -5417.3095      11.858         11.858         11.858         1667.379     
      1300   906.58184     -19451.348      7.3826487     -19443.966      568.01287      11.858         11.858         11.858         1667.379     
      1400   823.97177     -19450.997      6.7099228     -19444.287     -9149.4176      11.858         11.858         11.858         1667.379     
      1500   839.09906     -19451.386      6.8331102     -19444.553     -3222.5525      11.858         11.858         11.858         1667.379     
      1600   949.54211     -19452.493      7.7324909     -19444.76      -8259.2153      11.858         11.858         11.858         1667.379     
      1700   815.13876     -19451.581      6.6379921     -19444.943     -5621.8669      11.858         11.858         11.858         1667.379     
      1800   812.5345      -19451.675      6.6167847     -19445.059     -4593.1005      11.858         11.858         11.858         1667.379     
      1900   879.7664      -19452.292      7.1642802     -19445.128     -5452.8607      11.858         11.858         11.858         1667.379     
      2000   762.95844     -19451.359      6.2130674     -19445.146     -7431.5795      11.858         11.858         11.858         1667.379     
      2100   702.0179      -19450.815      5.7168049     -19445.098     -3115.1123      11.858         11.858         11.858         1667.379     
      2200   816.43714     -19451.618      6.6485653     -19444.97      -4498.9509      11.858         11.858         11.858         1667.379     
      2300   1042.9514     -19453.276      8.4931588     -19444.783     -5185.5508      11.858         11.858         11.858         1667.379     
      2400   905.22953     -19451.96       7.3716363     -19444.588      1107.5259      11.858         11.858         11.858         1667.379     
      2500   775.29603     -19450.695      6.3135373     -19444.382     -4154.3884      11.858         11.858         11.858         1667.379     
      2600   902.32231     -19451.485      7.3479617     -19444.137     -1696.4396      11.858         11.858         11.858         1667.379     
      2700   987.78446     -19451.907      8.0439132     -19443.863      1004.6561      11.858         11.858         11.858         1667.379     
      2800   1149.7609     -19452.944      9.3629506     -19443.581     -1701.1934      11.858         11.858         11.858         1667.379     
      2900   874.79241     -19450.544      7.123775      -19443.42      -5993.1685      11.858         11.858         11.858         1667.379     
      3000   1001.8555     -19451.455      8.1584994     -19443.296      842.29436      11.858         11.858         11.858         1667.379     
      3100   939.65185     -19450.833      7.6519507     -19443.181     -776.19065      11.858         11.858         11.858         1667.379     
      3200   1035.502      -19451.501      8.4324958     -19443.069      1194.2739      11.858         11.858         11.858         1667.379     
      3300   919.70558     -19450.476      7.4895204     -19442.986     -2886.2424      11.858         11.858         11.858         1667.379     
      3400   914.82903     -19450.38       7.4498088     -19442.931      86.363209      11.858         11.858         11.858         1667.379     
      3500   939.54429     -19450.592      7.6510748     -19442.941     -3561.3223      11.858         11.858         11.858         1667.379     
      3600   973.79923     -19450.943      7.930026      -19443.013     -2011.5462      11.858         11.858         11.858         1667.379     
      3700   1085.5906     -19452.019      8.8403864     -19443.179     -2814.0038      11.858         11.858         11.858         1667.379     
      3800   917.99149     -19451          7.4755619     -19443.524     -2308.9772      11.858         11.858         11.858         1667.379     
      3900   911.29854     -19451.442      7.4210587     -19444.021     -3965.0607      11.858         11.858         11.858         1667.379     
      4000   823.98718     -19451.288      6.7100482     -19444.578     -2568.7604      11.858         11.858         11.858         1667.379     
      4100   899.86114     -19452.414      7.3279194     -19445.086     -10309.891      11.858         11.858         11.858         1667.379     
      4200   765.18309     -19451.651      6.2311837     -19445.419     -8438.3363      11.858         11.858         11.858         1667.379     
      4300   750.4182      -19451.734      6.1109474     -19445.623     -6267.7432      11.858         11.858         11.858         1667.379     
      4400   819.08914     -19452.42       6.6701616     -19445.75      -8866.3674      11.858         11.858         11.858         1667.379     
      4500   814.47289     -19452.446      6.6325696     -19445.814     -7339.8295      11.858         11.858         11.858         1667.379     
      4600   745.1904      -19451.903      6.0683754     -19445.835     -8036.5951      11.858         11.858         11.858         1667.379     
      4700   835.82171     -19452.602      6.8064214     -19445.796     -3984.9723      11.858         11.858         11.858         1667.379     
      4800   841.61869     -19452.548      6.8536285     -19445.695     -5678.7187      11.858         11.858         11.858         1667.379     
      4900   934.34948     -19453.141      7.6087714     -19445.532     -5875.3739      11.858         11.858         11.858         1667.379     
      5000   890.68989     -19452.597      7.2532344     -19445.344     -9496.7082      11.858         11.858         11.858         1667.379     
      5100   837.70635     -19451.942      6.8217688     -19445.12      -9868.1818      11.858         11.858         11.858         1667.379     
      5200   916.35157     -19452.303      7.4622074     -19444.84      -4155.6296      11.858         11.858         11.858         1667.379     
      5300   848.07469     -19451.449      6.9062022     -19444.543     -3211.271       11.858         11.858         11.858         1667.379     
      5400   901.84375     -19451.574      7.3440646     -19444.23      -3098.1402      11.858         11.858         11.858         1667.379     
      5500   890.15042     -19451.203      7.2488412     -19443.954     -1940.4765      11.858         11.858         11.858         1667.379     
      5600   879.17729     -19450.907      7.1594828     -19443.748     -4818.099       11.858         11.858         11.858         1667.379     
      5700   955.87757     -19451.363      7.784083      -19443.579     -7022.5135      11.858         11.858         11.858         1667.379     
      5800   938.91632     -19451.108      7.6459609     -19443.462     -1924.4216      11.858         11.858         11.858         1667.379     
      5900   1040.5706     -19451.86       8.4737715     -19443.387     -3469.3609      11.858         11.858         11.858         1667.379     
      6000   871.96308     -19450.469      7.1007346     -19443.368     -5340.234       11.858         11.858         11.858         1667.379     
      6100   1047.4161     -19451.895      8.5295167     -19443.365     -5170.0827      11.858         11.858         11.858         1667.379     
      6200   939.60925     -19451.06       7.6516038     -19443.408      557.84748      11.858         11.858         11.858         1667.379     
      6300   941.64756     -19451.172      7.6682025     -19443.504      223.24067      11.858         11.858         11.858         1667.379     
      6400   898.85894     -19450.944      7.3197582     -19443.624     -4597.3019      11.858         11.858         11.858         1667.379     
      6500   938.64429     -19451.403      7.6437457     -19443.76      -3154.7734      11.858         11.858         11.858         1667.379     
      6600   868.2554      -19450.963      7.0705416     -19443.892     -5890.5947      11.858         11.858         11.858         1667.379     
      6700   981.05979     -19451.994      7.9891516     -19444.005     -2429.7892      11.858         11.858         11.858         1667.379     
      6800   735.91417     -19450.1        5.9928355     -19444.107     -2823.5839      11.858         11.858         11.858         1667.379     
      6900   856.00716     -19451.123      6.9707994     -19444.152     -2274.676       11.858         11.858         11.858         1667.379     
      7000   813.16257     -19450.772      6.6218993     -19444.15      -9657.024       11.858         11.858         11.858         1667.379     
      7100   838.21995     -19450.955      6.8259513     -19444.129     -5539.1299      11.858         11.858         11.858         1667.379     
      7200   939.35823     -19451.712      7.6495596     -19444.062     -8960.9883      11.858         11.858         11.858         1667.379     
      7300   906.31228     -19451.382      7.3804536     -19444.001     -6860.9926      11.858         11.858         11.858         1667.379     
      7400   909.8311      -19451.382      7.4091087     -19443.973     -4799.1689      11.858         11.858         11.858         1667.379     
      7500   843.71331     -19450.806      6.8706858     -19443.936     -5885.8599      11.858         11.858         11.858         1667.379     
      7600   790.26394     -19450.321      6.4354268     -19443.885     -8444.3366      11.858         11.858         11.858         1667.379     
      7700   803.06979     -19450.369      6.5397098     -19443.829     -4991.4953      11.858         11.858         11.858         1667.379     
      7800   847.3698      -19450.654      6.900462      -19443.754     -2383.3873      11.858         11.858         11.858         1667.379     
      7900   937.96837     -19451.328      7.6382414     -19443.69       148.243        11.858         11.858         11.858         1667.379     
      8000   937.56254     -19451.293      7.6349366     -19443.659     -726.5129       11.858         11.858         11.858         1667.379     
      8100   965.54366     -19451.513      7.8627978     -19443.651     -3817.2504      11.858         11.858         11.858         1667.379     
      8200   879.98791     -19450.832      7.1660839     -19443.666     -6204.8044      11.858         11.858         11.858         1667.379     
      8300   855.48351     -19450.633      6.9665351     -19443.666     -3584.3072      11.858         11.858         11.858         1667.379     
      8400   917.76365     -19451.108      7.4737065     -19443.634     -5785.5016      11.858         11.858         11.858         1667.379     
      8500   961.89832     -19451.426      7.8331123     -19443.593      1215.3705      11.858         11.858         11.858         1667.379     
      8600   859.18355     -19450.577      6.996666      -19443.58      -1614.401       11.858         11.858         11.858         1667.379     
      8700   839.7468      -19450.413      6.838385      -19443.575     -5661.5733      11.858         11.858         11.858         1667.379     
      8800   944.70166     -19451.281      7.6930732     -19443.587     -5465.3396      11.858         11.858         11.858         1667.379     
      8900   961.9876      -19451.423      7.8338394     -19443.589     -5250.2996      11.858         11.858         11.858         1667.379     
      9000   916.36432     -19451.078      7.4623113     -19443.616     -1474.183       11.858         11.858         11.858         1667.379     
      9100   872.88182     -19450.771      7.1082164     -19443.663      4172.8277      11.858         11.858         11.858         1667.379     
      9200   1010.9331     -19451.995      8.2324218     -19443.762     -2152.9262      11.858         11.858         11.858         1667.379     
      9300   983.73616     -19451.924      8.0109463     -19443.913     -8127.8231      11.858         11.858         11.858         1667.379     
      9400   827.18443     -19450.789      6.7360847     -19444.053     -7535.1853      11.858         11.858         11.858         1667.379     
      9500   933.13158     -19451.765      7.5988535     -19444.166     -7019.0967      11.858         11.858         11.858         1667.379     
      9600   926.48958     -19451.875      7.5447652     -19444.33      -2517.3397      11.858         11.858         11.858         1667.379     
      9700   990.60345     -19452.59       8.0668694     -19444.523     -4773.6482      11.858         11.858         11.858         1667.379     
      9800   844.68622     -19451.615      6.8786086     -19444.736     -5291.8895      11.858         11.858         11.858         1667.379     
      9900   918.36881     -19452.48       7.4786346     -19445.002     -3040.3691      11.858         11.858         11.858         1667.379     
     10000   848.25973     -19452.322      6.9077091     -19445.415     -4228.4332      11.858         11.858         11.858         1667.379     
     10100   811.21298     -19452.632      6.6060229     -19446.026     -1828.5748      11.858         11.858         11.858         1667.379     
     10200   750.80025     -19452.772      6.1140586     -19446.658     -7661.2501      11.858         11.858         11.858         1667.379     
     10300   692.09566     -19452.681      5.6360042     -19447.045     -5007.7062      11.858         11.858         11.858         1667.379     
     10400   682.56201     -19452.792      5.5583681     -19447.233     -2006.2827      11.858         11.858         11.858         1667.379     
     10500   799.33111     -19453.806      6.5092643     -19447.297     -9797.7048      11.858         11.858         11.858         1667.379     
     10600   731.66255     -19453.235      5.9582128     -19447.277     -4062.847       11.858         11.858         11.858         1667.379     
     10700   710.81273     -19452.965      5.7884247     -19447.177     -5559.1019      11.858         11.858         11.858         1667.379     
     10800   765.80468     -19453.227      6.2362455     -19446.991     -2002.5551      11.858         11.858         11.858         1667.379     
     10900   760.93107     -19452.921      6.1965578     -19446.725     -8023.7589      11.858         11.858         11.858         1667.379     
     11000   735.88247     -19452.423      5.9925773     -19446.43      -8341.2238      11.858         11.858         11.858         1667.379     
     11100   742.30378     -19452.139      6.0448685     -19446.094     -4925.3297      11.858         11.858         11.858         1667.379     
     11200   887.07858     -19452.974      7.2238261     -19445.75       1729.9748      11.858         11.858         11.858         1667.379     
     11300   775.75319     -19451.779      6.3172601     -19445.462      680.1407       11.858         11.858         11.858         1667.379     
     11400   926.99715     -19452.736      7.5488986     -19445.188     -3198.7146      11.858         11.858         11.858         1667.379     
     11500   952.34733     -19452.72       7.7553349     -19444.964     -1600.7773      11.858         11.858         11.858         1667.379     
     11600   887.53338     -19451.976      7.2275297     -19444.749      619.36549      11.858         11.858         11.858         1667.379     
     11700   762.76305     -19450.801      6.2114763     -19444.59      -855.54701      11.858         11.858         11.858         1667.379     
     11800   865.8761      -19451.498      7.051166      -19444.447     -2625.3503      11.858         11.858         11.858         1667.379     
     11900   984.27414     -19452.319      8.0153274     -19444.304     -7077.9071      11.858         11.858         11.858         1667.379     
     12000   872.84293     -19451.291      7.1078996     -19444.183     -2091.9563      11.858         11.858         11.858         1667.379     
     12100   817.61883     -19450.735      6.6581883     -19444.077     -4284.5095      11.858         11.858         11.858         1667.379     
     12200   1023.4745     -19452.312      8.3345515     -19443.977     -1722.2283      11.858         11.858         11.858         1667.379     
     12300   815.97858     -19450.529      6.6448311     -19443.884     -3232.4647      11.858         11.858         11.858         1667.379     
     12400   813.26915     -19450.423      6.6227672     -19443.8       -1050.3484      11.858         11.858         11.858         1667.379     
     12500   830.72997     -19450.484      6.7649574     -19443.719      1036.7196      11.858         11.858         11.858         1667.379     
     12600   1017.5745     -19451.919      8.2865049     -19443.633      494.51609      11.858         11.858         11.858         1667.379     
     12700   903.7748      -19450.925      7.3597898     -19443.565     -1424.5811      11.858         11.858         11.858         1667.379     
     12800   860.52933     -19450.522      7.0076252     -19443.514     -4846.4965      11.858         11.858         11.858         1667.379     
     12900   891.19683     -19450.703      7.2573626     -19443.446     -1321.9334      11.858         11.858         11.858         1667.379     
     13000   929.56138     -19450.903      7.56978       -19443.333      4578.0692      11.858         11.858         11.858         1667.379     
     13100   907.78673     -19450.564      7.3924606     -19443.172      3224.6686      11.858         11.858         11.858         1667.379     
     13200   961.3933      -19450.797      7.8289998     -19442.968     -451.96905      11.858         11.858         11.858         1667.379     
     13300   999.13143     -19450.913      8.1363161     -19442.777     -4420.5448      11.858         11.858         11.858         1667.379     
     13400   1036.8712     -19451.045      8.4436456     -19442.601     -2552.5557      11.858         11.858         11.858         1667.379     
     13500   896.0802      -19449.75       7.2971298     -19442.453      1268.6149      11.858         11.858         11.858         1667.379     
     13600   950.51344     -19450.059      7.7404008     -19442.319     -3049.3537      11.858         11.858         11.858         1667.379     
     13700   858.28686     -19449.2        6.9893639     -19442.21      -10020.803      11.858         11.858         11.858         1667.379     
     13800   1093.3442     -19451.031      8.9035276     -19442.128     -2620.8872      11.858         11.858         11.858         1667.379     
     13900   1134.7407     -19451.363      9.2406352     -19442.122     -9763.3489      11.858         11.858         11.858         1667.379     
     14000   962.92907     -19450.029      7.8415062     -19442.187     -6039.9121      11.858         11.858         11.858         1667.379     
     14100   948.04565     -19450.043      7.7203047     -19442.323      1069.7326      11.858         11.858         11.858         1667.379     
     14200   832.83884     -19449.316      6.7821308     -19442.533     -8085.8583      11.858         11.858         11.858         1667.379     
     14300   989.4435      -19450.88       8.0574235     -19442.823      382.81017      11.858         11.858         11.858         1667.379     
     14400   1036.0488     -19451.678      8.4369488     -19443.241     -381.74355      11.858         11.858         11.858         1667.379     
     14500   939.4192      -19451.313      7.6500561     -19443.663     -8259.2437      11.858         11.858         11.858         1667.379     
     14600   893.87546     -19451.327      7.2791757     -19444.048     -3729.4312      11.858         11.858         11.858         1667.379     
     14700   800.225       -19450.866      6.5165436     -19444.35      -3335.3428      11.858         11.858         11.858         1667.379     
     14800   836.23951     -19451.367      6.8098237     -19444.558     -4319.2963      11.858         11.858         11.858         1667.379     
     14900   871.03253     -19451.78       7.0931568     -19444.687     -5497.555       11.858         11.858         11.858         1667.379     
     15000   803.26856     -19451.313      6.5413284     -19444.772     -5652.4344      11.858         11.858         11.858         1667.379     
     15100   804.75904     -19451.371      6.5534661     -19444.818      528.73982      11.858         11.858         11.858         1667.379     
     15200   815.38865     -19451.455      6.6400271     -19444.815     -7504.5153      11.858         11.858         11.858         1667.379     
     15300   809.21168     -19451.357      6.5897256     -19444.768     -4819.9808      11.858         11.858         11.858         1667.379     
     15400   876.11473     -19451.785      7.1345432     -19444.651     -6469.8578      11.858         11.858         11.858         1667.379     
     15500   887.41345     -19451.706      7.226553      -19444.48      -10254.379      11.858         11.858         11.858         1667.379     
     15600   760.43801     -19450.449      6.1925426     -19444.256     -3984.7145      11.858         11.858         11.858         1667.379     
     15700   1006.3385     -19452.14       8.1950058     -19443.945     -7806.8712      11.858         11.858         11.858         1667.379     
     15800   857.64475     -19450.628      6.9841349     -19443.643     -3745.471       11.858         11.858         11.858         1667.379     
     15900   933.64576     -19451.015      7.6030407     -19443.412     -5975.8336      11.858         11.858         11.858         1667.379     
     16000   980.83541     -19451.191      7.9873244     -19443.204     -912.90372      11.858         11.858         11.858         1667.379     
     16100   916.59051     -19450.512      7.4641532     -19443.048      2126.403       11.858         11.858         11.858         1667.379     
     16200   1061.8888     -19451.598      8.6473739     -19442.95       5162.9643      11.858         11.858         11.858         1667.379     
     16300   930.93202     -19450.519      7.5809417     -19442.938      158.95486      11.858         11.858         11.858         1667.379     
     16400   891.19493     -19450.253      7.2573471     -19442.996      3692.0822      11.858         11.858         11.858         1667.379     
     16500   977.12447     -19451.055      7.9571048     -19443.098      3090.4447      11.858         11.858         11.858         1667.379     
     16600   962.97935     -19451.036      7.8419156     -19443.194     -3375.7787      11.858         11.858         11.858         1667.379     
     16700   986.95807     -19451.326      8.0371836     -19443.289     -1373.4913      11.858         11.858         11.858         1667.379     
     16800   915.13644     -19450.868      7.4523121     -19443.416     -2893.0907      11.858         11.858         11.858         1667.379     
     16900   792.806       -19449.99       6.4561278     -19443.534     -10808.839      11.858         11.858         11.858         1667.379     
     17000   779.84555     -19449.969      6.3505858     -19443.618     -3860.2088      11.858         11.858         11.858         1667.379     
     17100   920.05789     -19451.166      7.4923894     -19443.674     -12234.593      11.858         11.858         11.858         1667.379     
     17200   916.10019     -19451.182      7.4601603     -19443.721     -7534.7381      11.858         11.858         11.858         1667.379     
     17300   869.65283     -19450.838      7.0819214     -19443.756     -7610.8508      11.858         11.858         11.858         1667.379     
     17400   884.61809     -19450.976      7.2037893     -19443.772      1452.4406      11.858         11.858         11.858         1667.379     
     17500   894.3548      -19451.066      7.2830792     -19443.783     -9997.1461      11.858         11.858         11.858         1667.379     
     17600   893.01325     -19451.074      7.2721544     -19443.802     -3242.7024      11.858         11.858         11.858         1667.379     
     17700   937.51977     -19451.474      7.6345883     -19443.839     -3183.1945      11.858         11.858         11.858         1667.379     
     17800   729.24436     -19449.842      5.9385206     -19443.904     -1601.6028      11.858         11.858         11.858         1667.379     
     17900   844.46402     -19450.819      6.8767991     -19443.942     -6707.5309      11.858         11.858         11.858         1667.379     
     18000   820.986       -19450.631      6.6856085     -19443.945     -2866.5421      11.858         11.858         11.858         1667.379     
     18100   919.14022     -19451.398      7.4849165     -19443.913     -682.93214      11.858         11.858         11.858         1667.379     
     18200   778.66673     -19450.192      6.3409862     -19443.851     -2063.2242      11.858         11.858         11.858         1667.379     
     18300   865.07536     -19450.804      7.0446453     -19443.759     -3312.5123      11.858         11.858         11.858         1667.379     
     18400   858.32618     -19450.634      6.9896841     -19443.644      2156.914       11.858         11.858         11.858         1667.379     
     18500   994.80533     -19451.598      8.1010869     -19443.497     -6197.0504      11.858         11.858         11.858         1667.379     
     18600   1074.4604     -19452.093      8.7497489     -19443.344      1893.6317      11.858         11.858         11.858         1667.379     
     18700   1046.1357     -19451.792      8.5190899     -19443.273     -2982.7124      11.858         11.858         11.858         1667.379     
     18800   1024.5844     -19451.611      8.3435892     -19443.268     -2045.0562      11.858         11.858         11.858         1667.379     
     18900   1085.1844     -19452.155      8.837079      -19443.318      767.7762       11.858         11.858         11.858         1667.379     
     19000   966.17114     -19451.271      7.8679076     -19443.403      1902.0217      11.858         11.858         11.858         1667.379     
     19100   913.72063     -19450.973      7.4407826     -19443.532     -3984.4374      11.858         11.858         11.858         1667.379     
     19200   866.89645     -19450.724      7.0594751     -19443.664     -6936.9408      11.858         11.858         11.858         1667.379     
     19300   948.83143     -19451.537      7.7267036     -19443.81      -5580.0351      11.858         11.858         11.858         1667.379     
     19400   871.35617     -19451.047      7.0957924     -19443.951     -7915.3089      11.858         11.858         11.858         1667.379     
     19500   844.35228     -19450.973      6.8758891     -19444.097     -4152.1944      11.858         11.858         11.858         1667.379     
     19600   821.65919     -19450.914      6.6910905     -19444.223     -3175.8269      11.858         11.858         11.858         1667.379     
     19700   869.21945     -19451.403      7.0783922     -19444.325     -90.994229      11.858         11.858         11.858         1667.379     
     19800   915.89403     -19451.87       7.4584815     -19444.412     -3782.3505      11.858         11.858         11.858         1667.379     
     19900   749.87882     -19450.587      6.106555      -19444.48       2951.5069      11.858         11.858         11.858         1667.379     
     20000   906.51116     -19451.864      7.3820731     -19444.482     -3783.3279      11.858         11.858         11.858         1667.379     
     20100   815.0255      -19451.061      6.6370698     -19444.424     -4589.8682      11.858         11.858         11.858         1667.379     
     20200   777.65354     -19450.637      6.3327354     -19444.304     -5206.286       11.858         11.858         11.858         1667.379     
     20300   819.71426     -19450.74       6.6752522     -19444.065     -3023.6537      11.858         11.858         11.858         1667.379     
     20400   807.98946     -19450.312      6.5797726     -19443.733     -4708.3523      11.858         11.858         11.858         1667.379     
     20500   853.61648     -19450.275      6.9513312     -19443.323     -6699.2255      11.858         11.858         11.858         1667.379     
     20600   859.10432     -19449.92       6.9960208     -19442.924     -1106.1338      11.858         11.858         11.858         1667.379     
     20700   898.09937     -19449.841      7.3135727     -19442.527     -5604.4961      11.858         11.858         11.858         1667.379     
     20800   1000.4161     -19450.371      8.1467777     -19442.225     -1933.7938      11.858         11.858         11.858         1667.379     
     20900   1105.524      -19451.058      9.0027119     -19442.055      911.33949      11.858         11.858         11.858         1667.379     
     21000   1084.9304     -19450.845      8.8350101     -19442.01      -539.16326      11.858         11.858         11.858         1667.379     
     21100   814.20117     -19448.68       6.630357      -19442.05      -291.77713      11.858         11.858         11.858         1667.379     
     21200   1114.7914     -19451.208      9.0781805     -19442.13       2592.2348      11.858         11.858         11.858         1667.379     
     21300   940.59283     -19449.941      7.6596135     -19442.282     -7810.3258      11.858         11.858         11.858         1667.379     
     21400   962.89979     -19450.336      7.8412677     -19442.494     -4167.3069      11.858         11.858         11.858         1667.379     
     21500   1047.2874     -19451.341      8.528469      -19442.812      3246.9754      11.858         11.858         11.858         1667.379     
     21600   936.98339     -19450.822      7.6302204     -19443.192      4149.7248      11.858         11.858         11.858         1667.379     
     21700   908.85435     -19450.922      7.4011547     -19443.521     -5112.4608      11.858         11.858         11.858         1667.379     
     21800   909.63873     -19451.187      7.4075422     -19443.779     -2995.5753      11.858         11.858         11.858         1667.379     
     21900   895.41796     -19451.257      7.2917369     -19443.965     -7921.6819      11.858         11.858         11.858         1667.379     
     22000   927.6071      -19451.642      7.5538656     -19444.088     -8388.8977      11.858         11.858         11.858         1667.379     
     22100   975.28493     -19452.103      7.9421247     -19444.161     -7401.3001      11.858         11.858         11.858         1667.379     
     22200   872.1905      -19451.318      7.1025867     -19444.215     -4521.391       11.858         11.858         11.858         1667.379     
     22300   878.22765     -19451.404      7.1517495     -19444.252     -1963.932       11.858         11.858         11.858         1667.379     
     22400   851.30131     -19451.245      6.9324779     -19444.312     -8997.9318      11.858         11.858         11.858         1667.379     
     22500   967.55334     -19452.247      7.8791633     -19444.368     -6758.2502      11.858         11.858         11.858         1667.379     
     22600   790.69943     -19450.86       6.4389731     -19444.421     -8228.7538      11.858         11.858         11.858         1667.379     
     22700   741.3177      -19450.508      6.0368385     -19444.471     -2853.2448      11.858         11.858         11.858         1667.379     
     22800   882.1701      -19451.685      7.1838544     -19444.502     -2377.678       11.858         11.858         11.858         1667.379     
     22900   827.92328     -19451.269      6.7421014     -19444.526     -4842.5125      11.858         11.858         11.858         1667.379     
     23000   802.60303     -19451.075      6.5359088     -19444.539     -6290.2129      11.858         11.858         11.858         1667.379     
     23100   842.15432     -19451.394      6.8579903     -19444.536     -3481.7509      11.858         11.858         11.858         1667.379     
     23200   900.26419     -19451.818      7.3312016     -19444.487     -4626.1106      11.858         11.858         11.858         1667.379     
     23300   937.6376      -19452.046      7.6355478     -19444.411     -6183.4779      11.858         11.858         11.858         1667.379     
     23400   830.34875     -19451.078      6.761853      -19444.316     -6188.1499      11.858         11.858         11.858         1667.379     
     23500   808.37714     -19450.77       6.5829296     -19444.187     -4667.7909      11.858         11.858         11.858         1667.379     
     23600   855.23485     -19450.911      6.9645102     -19443.947     -3701.1366      11.858         11.858         11.858         1667.379     
     23700   823.36619     -19450.301      6.7049913     -19443.596     -2021.6722      11.858         11.858         11.858         1667.379     
     23800   848.40538     -19450.08       6.9088951     -19443.171     -58.017142      11.858         11.858         11.858         1667.379     
     23900   805.02695     -19449.261      6.5556477     -19442.706     -3510.5179      11.858         11.858         11.858         1667.379     
     24000   948.16763     -19450.006      7.721298      -19442.284     -2757.353       11.858         11.858         11.858         1667.379     
     24100   1115.0711     -19451.05       9.0804577     -19441.97       555.51739      11.858         11.858         11.858         1667.379     
     24200   1151.75       -19451.192      9.3791483     -19441.813      1332.0537      11.858         11.858         11.858         1667.379     
     24300   1072.6579     -19450.524      8.7350709     -19441.789     -4317.979       11.858         11.858         11.858         1667.379     
     24400   1028.7815     -19450.192      8.3777681     -19441.814     -2346.7651      11.858         11.858         11.858         1667.379     
     24500   934.52299     -19449.514      7.6101843     -19441.904     -2261.0898      11.858         11.858         11.858         1667.379     
     24600   936.30948     -19449.737      7.6247324     -19442.112     -2826.8814      11.858         11.858         11.858         1667.379     
     24700   895.64175     -19449.668      7.2935593     -19442.374     -4118.6981      11.858         11.858         11.858         1667.379     
     24800   936.15548     -19450.286      7.6234784     -19442.662     -1536.2447      11.858         11.858         11.858         1667.379     
     24900   858.584       -19449.964      6.9917836     -19442.972      2922.9227      11.858         11.858         11.858         1667.379     
     25000   951.36472     -19450.996      7.7473331     -19443.248     -1492.7572      11.858         11.858         11.858         1667.379     
     25100   942.43153     -19451.235      7.6745867     -19443.56       1467.3533      11.858         11.858         11.858         1667.379     
     25200   925.27568     -19451.374      7.5348799     -19443.839      637.62743      11.858         11.858         11.858         1667.379     
     25300   803.1669      -19450.607      6.5405006     -19444.066     -1553.4531      11.858         11.858         11.858         1667.379     
     25400   966.1832      -19452.094      7.8680058     -19444.226     -5945.3737      11.858         11.858         11.858         1667.379     
     25500   945.38321     -19452.054      7.6986234     -19444.355     -3560.6866      11.858         11.858         11.858         1667.379     
     25600   1018.7758     -19452.736      8.2962878     -19444.439     -2500.1948      11.858         11.858         11.858         1667.379     
     25700   855.3817      -19451.486      6.9657061     -19444.52      -9077.2487      11.858         11.858         11.858         1667.379     
     25800   813.61723     -19451.174      6.6256017     -19444.548     -6387.9955      11.858         11.858         11.858         1667.379     
     25900   846.69        -19451.413      6.8949261     -19444.518     -3328.9076      11.858         11.858         11.858         1667.379     
     26000   945.82643     -19452.176      7.7022327     -19444.474     -4168.152       11.858         11.858         11.858         1667.379     
     26100   910.25059     -19451.846      7.4125248     -19444.434     -7788.766       11.858         11.858         11.858         1667.379     
     26200   938.87719     -19452.027      7.6456423     -19444.382     -3138.0911      11.858         11.858         11.858         1667.379     
     26300   858.96044     -19451.343      6.9948491     -19444.348     -4632.7433      11.858         11.858         11.858         1667.379     
     26400   855.9451      -19451.275      6.9702941     -19444.305     -4271.6624      11.858         11.858         11.858         1667.379     
     26500   996.34347     -19452.372      8.1136126     -19444.258     -1755.6808      11.858         11.858         11.858         1667.379     
     26600   816.32467     -19450.86       6.6476495     -19444.212     -753.32805      11.858         11.858         11.858         1667.379     
     26700   865.22506     -19451.208      7.0458643     -19444.162     -8637.9381      11.858         11.858         11.858         1667.379     
     26800   856.84707     -19451.101      6.9776392     -19444.123     -8451.2605      11.858         11.858         11.858         1667.379     
     26900   1067.2607     -19452.758      8.6911193     -19444.067      163.37564      11.858         11.858         11.858         1667.379     
     27000   887.62827     -19451.279      7.2283024     -19444.051      2938.4533      11.858         11.858         11.858         1667.379     
     27100   856.44614     -19450.994      6.9743742     -19444.019      229.76531      11.858         11.858         11.858         1667.379     
     27200   1016.5123     -19452.257      8.2778553     -19443.979      3370.9716      11.858         11.858         11.858         1667.379     
     27300   963.54872     -19451.82       7.8465522     -19443.974     -6591.6343      11.858         11.858         11.858         1667.379     
     27400   1004.1946     -19452.167      8.1775472     -19443.989     -2569.3365      11.858         11.858         11.858         1667.379     
     27500   879.24859     -19451.178      7.1600634     -19444.018      398.1922       11.858         11.858         11.858         1667.379     
     27600   963.03442     -19451.883      7.842364      -19444.041     -1938.2873      11.858         11.858         11.858         1667.379     
     27700   842.27598     -19450.893      6.8589811     -19444.034     -1934.8216      11.858         11.858         11.858         1667.379     
     27800   824.1494      -19450.729      6.7113692     -19444.018     -1951.7033      11.858         11.858         11.858         1667.379     
     27900   990.36194     -19452.076      8.0649026     -19444.011     -774.65784      11.858         11.858         11.858         1667.379     
     28000   944.11801     -19451.715      7.6883204     -19444.026      1624.7139      11.858         11.858         11.858         1667.379     
     28100   849.97764     -19450.951      6.9216987     -19444.029     -3390.1223      11.858         11.858         11.858         1667.379     
     28200   880.26286     -19451.162      7.168323      -19443.993     -4791.4167      11.858         11.858         11.858         1667.379     
     28300   952.33052     -19451.683      7.755198      -19443.928     -3775.5769      11.858         11.858         11.858         1667.379     
     28400   949.2909      -19451.609      7.7304452     -19443.879     -4895.5263      11.858         11.858         11.858         1667.379     
     28500   899.18418     -19451.151      7.3224067     -19443.828     -5804.0198      11.858         11.858         11.858         1667.379     
     28600   1033.5816     -19452.177      8.4168575     -19443.76      -1986.8461      11.858         11.858         11.858         1667.379     
     28700   917.92521     -19451.208      7.4750222     -19443.733     -1518.0342      11.858         11.858         11.858         1667.379     
     28800   920.23084     -19451.201      7.4937978     -19443.707     -4463.6572      11.858         11.858         11.858         1667.379     
     28900   946.70409     -19451.383      7.7093798     -19443.674     -5713.5363      11.858         11.858         11.858         1667.379     
     29000   874.45001     -19450.767      7.1209867     -19443.646     -1011.7493      11.858         11.858         11.858         1667.379     
     29100   830.58477     -19450.345      6.763775      -19443.581     -1724.5592      11.858         11.858         11.858         1667.379     
     29200   967.57352     -19451.374      7.8793277     -19443.494     -2317.1019      11.858         11.858         11.858         1667.379     
     29300   843.7653      -19450.25       6.8711092     -19443.379     -5231.0097      11.858         11.858         11.858         1667.379     
     29400   873.15368     -19450.352      7.1104302     -19443.242     -4349.5964      11.858         11.858         11.858         1667.379     
     29500   851.62511     -19450.018      6.9351147     -19443.083     -2463.7063      11.858         11.858         11.858         1667.379     
     29600   1019.9161     -19451.205      8.3055735     -19442.9       -4232.1267      11.858         11.858         11.858         1667.379     
     29700   1015.2321     -19451.032      8.2674297     -19442.765     -6009.335       11.858         11.858         11.858         1667.379     
     29800   1019.8222     -19450.993      8.3048094     -19442.688     -5540.02        11.858         11.858         11.858         1667.379     
     29900   983.13849     -19450.71       8.0060793     -19442.704     -3659.5355      11.858         11.858         11.858         1667.379     
     30000   977.60401     -19450.728      7.9610099     -19442.767     -7039.4685      11.858         11.858         11.858         1667.379     
     30100   1005.4707     -19451.08       8.1879392     -19442.893     -4444.9445      11.858         11.858         11.858         1667.379     
     30200   883.70234     -19450.307      7.1963321     -19443.111     -9709.9629      11.858         11.858         11.858         1667.379     
     30300   948.97106     -19451.128      7.7278406     -19443.4       -3122.2444      11.858         11.858         11.858         1667.379     
     30400   876.1338      -19450.864      7.1346985     -19443.73      -5619.5423      11.858         11.858         11.858         1667.379     
     30500   901.54397     -19451.448      7.3416234     -19444.106     -2622.4551      11.858         11.858         11.858         1667.379     
     30600   863.83522     -19451.519      7.0345464     -19444.484     -4983.2041      11.858         11.858         11.858         1667.379     
     30700   755.23297     -19450.913      6.150156      -19444.763     -8223.5347      11.858         11.858         11.858         1667.379     
     30800   743.09659     -19451.019      6.0513247     -19444.967      983.44198      11.858         11.858         11.858         1667.379     
     30900   781.19709     -19451.464      6.3615919     -19445.103     -11510.289      11.858         11.858         11.858         1667.379     
     31000   736.48962     -19451.158      5.9975216     -19445.161     -11220.432      11.858         11.858         11.858         1667.379     
     31100   939.71903     -19452.816      7.6524977     -19445.164     -2798.7679      11.858         11.858         11.858         1667.379     
     31200   947.29105     -19452.88       7.7141597     -19445.165     -2690.3206      11.858         11.858         11.858         1667.379     
     31300   968.424       -19453.04       7.8862535     -19445.154     -395.42468      11.858         11.858         11.858         1667.379     
     31400   977.36542     -19453.087      7.959067      -19445.128     -2597.0687      11.858         11.858         11.858         1667.379     
     31500   939.7413      -19452.779      7.6526791     -19445.126     -4534.8112      11.858         11.858         11.858         1667.379     
     31600   861.87136     -19452.194      7.0185538     -19445.176     -7285.4837      11.858         11.858         11.858         1667.379     
     31700   931.8076      -19452.839      7.5880719     -19445.251     -6447.0635      11.858         11.858         11.858         1667.379     
     31800   805.71287     -19451.908      6.5612335     -19445.346     -4072.0263      11.858         11.858         11.858         1667.379     
     31900   893.63939     -19452.727      7.2772533     -19445.449     -3667.3687      11.858         11.858         11.858         1667.379     
     32000   939.61802     -19453.26       7.6516752     -19445.608     -1909.8388      11.858         11.858         11.858         1667.379     
     32100   812.92972     -19452.446      6.620003      -19445.826     -8694.7803      11.858         11.858         11.858         1667.379     
     32200   870.33127     -19453.167      7.0874462     -19446.08      -9661.2146      11.858         11.858         11.858         1667.379     
     32300   776.50938     -19452.651      6.3234181     -19446.327     -5469.0399      11.858         11.858         11.858         1667.379     
     32400   710.5579      -19452.297      5.7863495     -19446.51      -6773.8055      11.858         11.858         11.858         1667.379     
     32500   787.79957     -19453.063      6.4153584     -19446.647     -10525.957      11.858         11.858         11.858         1667.379     
     32600   842.70506     -19453.587      6.8624752     -19446.724     -9280.5716      11.858         11.858         11.858         1667.379     
     32700   796.32486     -19453.219      6.4847832     -19446.734     -3953.0407      11.858         11.858         11.858         1667.379     
     32800   739.04786     -19452.691      6.0183543     -19446.672     -1282.9137      11.858         11.858         11.858         1667.379     
     32900   660.53955     -19451.931      5.3790306     -19446.552     -5026.6318      11.858         11.858         11.858         1667.379     
     33000   757.05954     -19452.503      6.1650305     -19446.338     -7953.9392      11.858         11.858         11.858         1667.379     
     33100   790.99634     -19452.468      6.441391      -19446.027     -6025.3213      11.858         11.858         11.858         1667.379     
     33200   748.02676     -19451.747      6.091473      -19445.656     -6651.0097      11.858         11.858         11.858         1667.379     
     33300   960.29024     -19453.089      7.8200171     -19445.269      2140.7188      11.858         11.858         11.858         1667.379     
     33400   798.59711     -19451.416      6.503287      -19444.913     -1530.9487      11.858         11.858         11.858         1667.379     
     33500   986.26193     -19452.65       8.0315147     -19444.618     -3824.2409      11.858         11.858         11.858         1667.379     
     33600   800.84719     -19450.929      6.5216103     -19444.407     -6932.8587      11.858         11.858         11.858         1667.379     
     33700   833.72471     -19451.007      6.7893448     -19444.218     -2416.3894      11.858         11.858         11.858         1667.379     
     33800   949.32043     -19451.791      7.7306857     -19444.06      -1712.9846      11.858         11.858         11.858         1667.379     
     33900   871.68718     -19451.051      7.0984879     -19443.953     -7013.8927      11.858         11.858         11.858         1667.379     
     34000   718.72581     -19449.721      5.852864      -19443.868      1240.0956      11.858         11.858         11.858         1667.379     
     34100   868.42852     -19450.826      7.0719513     -19443.754     -2458.4207      11.858         11.858         11.858         1667.379     
     34200   959.84307     -19451.402      7.8163757     -19443.586     -4769.1049      11.858         11.858         11.858         1667.379     
     34300   900.52513     -19450.749      7.3333266     -19443.416     -1844.9157      11.858         11.858         11.858         1667.379     
     34400   866.46664     -19450.308      7.0559751     -19443.252     -6280.5342      11.858         11.858         11.858         1667.379     
     34500   890.23584     -19450.365      7.2495369     -19443.116     -5204.0237      11.858         11.858         11.858         1667.379     
     34600   1089.0372     -19451.879      8.8684533     -19443.011     -2546.6293      11.858         11.858         11.858         1667.379     
     34700   964.61554     -19450.804      7.8552397     -19442.949     -6875.8039      11.858         11.858         11.858         1667.379     
     34800   934.96839     -19450.535      7.6138114     -19442.921     -2845.2743      11.858         11.858         11.858         1667.379     
     34900   869.28223     -19450.012      7.0789035     -19442.933     -2087.8545      11.858         11.858         11.858         1667.379     
     35000   1014.9993     -19451.206      8.2655344     -19442.94      -1703.2306      11.858         11.858         11.858         1667.379     
     35100   1055.7991     -19451.603      8.597783      -19443.005     -8219.8329      11.858         11.858         11.858         1667.379     
     35200   990.04514     -19451.226      8.0623228     -19443.164      2349.9194      11.858         11.858         11.858         1667.379     
     35300   904.62984     -19450.858      7.3667528     -19443.491      330.17101      11.858         11.858         11.858         1667.379     
     35400   829.12546     -19450.719      6.7518913     -19443.967      485.58682      11.858         11.858         11.858         1667.379     
     35500   882.2421      -19451.683      7.1844407     -19444.498     -4859.047       11.858         11.858         11.858         1667.379     
     35600   815.72961     -19451.6        6.6428036     -19444.957     -1517.949       11.858         11.858         11.858         1667.379     
     35700   831.67449     -19452.061      6.772649      -19445.288     -6054.4293      11.858         11.858         11.858         1667.379     
     35800   736.86743     -19451.514      6.0005983     -19445.513     -3223.7527      11.858         11.858         11.858         1667.379     
     35900   787.40829     -19452.041      6.4121721     -19445.629     -3204.7847      11.858         11.858         11.858         1667.379     
     36000   829.95548     -19452.452      6.7586505     -19445.693      45.904404      11.858         11.858         11.858         1667.379     
     36100   890.67581     -19452.987      7.2531198     -19445.734     -6396.5112      11.858         11.858         11.858         1667.379     
     36200   844.33956     -19452.616      6.8757856     -19445.74      -4952.0868      11.858         11.858         11.858         1667.379     
     36300   913.28459     -19453.137      7.4372318     -19445.7       -8341.845       11.858         11.858         11.858         1667.379     
     36400   799.67085     -19452.128      6.5120309     -19445.616     -1591.2194      11.858         11.858         11.858         1667.379     
     36500   747.57069     -19451.576      6.087759      -19445.488     -3173.6512      11.858         11.858         11.858         1667.379     
     36600   805.92109     -19451.861      6.562929      -19445.298     -3609.1234      11.858         11.858         11.858         1667.379     
     36700   762.75223     -19451.253      6.2113882     -19445.042     -1669.9556      11.858         11.858         11.858         1667.379     
     36800   844.66425     -19451.584      6.8784297     -19444.706     -2553.5169      11.858         11.858         11.858         1667.379     
     36900   777.70324     -19450.661      6.3331401     -19444.328     -6056.776       11.858         11.858         11.858         1667.379     
     37000   985.3691      -19451.98       8.024244      -19443.956     -3894.2177      11.858         11.858         11.858         1667.379     
     37100   901.43886     -19451.002      7.3407674     -19443.661     -350.57127      11.858         11.858         11.858         1667.379     
     37200   845.16184     -19450.3        6.8824818     -19443.417     -4141.2213      11.858         11.858         11.858         1667.379     
     37300   949.44659     -19450.964      7.7317131     -19443.232     -5160.7496      11.858         11.858         11.858         1667.379     
     37400   842.88531     -19449.972      6.8639431     -19443.108      1028.7206      11.858         11.858         11.858         1667.379     
     37500   929.3929      -19450.568      7.568408      -19443         -3540.5399      11.858         11.858         11.858         1667.379     
     37600   875.18491     -19450.062      7.1269713     -19442.935     -7579.1566      11.858         11.858         11.858         1667.379     
     37700   870.89389     -19449.987      7.0920279     -19442.895     -6149.0246      11.858         11.858         11.858         1667.379     
     37800   936.7273      -19450.472      7.6281349     -19442.843     -2218.5816      11.858         11.858         11.858         1667.379     
     37900   928.60181     -19450.373      7.5619659     -19442.811     -11.266286      11.858         11.858         11.858         1667.379     
     38000   1040.2091     -19451.291      8.4708274     -19442.821     -5232.4171      11.858         11.858         11.858         1667.379     
     38100   990.20599     -19450.961      8.0636327     -19442.897     -1779.094       11.858         11.858         11.858         1667.379     
     38200   1050.3757     -19451.561      8.5536183     -19443.008     -5591.9696      11.858         11.858         11.858         1667.379     
     38300   1074.8814     -19451.954      8.7531773     -19443.201     -5052.7572      11.858         11.858         11.858         1667.379     
     38400   1012.5485     -19451.692      8.2455763     -19443.447     -6587.6185      11.858         11.858         11.858         1667.379     
     38500   749.31771     -19449.871      6.1019857     -19443.769     -1250.1637      11.858         11.858         11.858         1667.379     
     38600   913.0598      -19451.537      7.4354013     -19444.102     -5309.2267      11.858         11.858         11.858         1667.379     
     38700   994.26089     -19452.53       8.0966533     -19444.433     -5181.6973      11.858         11.858         11.858         1667.379     
     38800   893.24968     -19452.046      7.2740798     -19444.772     -2980.0862      11.858         11.858         11.858         1667.379     
     38900   892.37293     -19452.333      7.2669401     -19445.067     -3941.09        11.858         11.858         11.858         1667.379     
     39000   909.85086     -19452.684      7.4092696     -19445.275      859.12043      11.858         11.858         11.858         1667.379     
     39100   907.59817     -19452.81       7.3909251     -19445.419     -6442.7484      11.858         11.858         11.858         1667.379     
     39200   898.43497     -19452.837      7.3163056     -19445.521      1060.2769      11.858         11.858         11.858         1667.379     
     39300   788.41634     -19452.012      6.4203811     -19445.591      350.11152      11.858         11.858         11.858         1667.379     
     39400   813.01738     -19452.208      6.6207169     -19445.587      823.60019      11.858         11.858         11.858         1667.379     
     39500   824.81289     -19452.246      6.7167723     -19445.529     -2144.5932      11.858         11.858         11.858         1667.379     
     39600   885.77196     -19452.656      7.2131858     -19445.443     -900.85898      11.858         11.858         11.858         1667.379     
     39700   733.85408     -19451.334      5.9760593     -19445.358     -469.21768      11.858         11.858         11.858         1667.379     
     39800   774.39638     -19451.537      6.306211      -19445.231     -2677.5779      11.858         11.858         11.858         1667.379     
     39900   942.63678     -19452.752      7.6762581     -19445.076     -4293.6672      11.858         11.858         11.858         1667.379     
     40000   927.03302     -19452.469      7.5491906     -19444.92      -4501.2076      11.858         11.858         11.858         1667.379     
     40100   856.07548     -19451.739      6.9713558     -19444.767     -10152.912      11.858         11.858         11.858         1667.379     
     40200   827.42611     -19451.333      6.7380528     -19444.595     -5708.6751      11.858         11.858         11.858         1667.379     
     40300   882.18635     -19451.573      7.1839867     -19444.389     -5831.2661      11.858         11.858         11.858         1667.379     
     40400   810.43461     -19450.77       6.5996844     -19444.17      -2216.1989      11.858         11.858         11.858         1667.379     
     40500   830.69977     -19450.692      6.7647115     -19443.927     -10551.281      11.858         11.858         11.858         1667.379     
     40600   830.13801     -19450.436      6.7601368     -19443.676     -1673.5702      11.858         11.858         11.858         1667.379     
     40700   890.24861     -19450.69       7.2496408     -19443.44      -7116.9312      11.858         11.858         11.858         1667.379     
     40800   855.72782     -19450.193      6.9685247     -19443.224     -4246.7485      11.858         11.858         11.858         1667.379     
     40900   974.88167     -19451.022      7.9388408     -19443.083      2512.2852      11.858         11.858         11.858         1667.379     
     41000   986.95211     -19451.056      8.0371351     -19443.019      1417.5075      11.858         11.858         11.858         1667.379     
     41100   1145.7826     -19452.361      9.3305535     -19443.031     -1915.8655      11.858         11.858         11.858         1667.379     
     41200   913.5787      -19450.554      7.4396269     -19443.114     -734.60254      11.858         11.858         11.858         1667.379     
     41300   844.46448     -19450.085      6.8768029     -19443.208     -8873.9048      11.858         11.858         11.858         1667.379     
     41400   829.17329     -19450.049      6.7522808     -19443.297     -2285.2658      11.858         11.858         11.858         1667.379     
     41500   856.02381     -19450.329      6.970935      -19443.358     -4296.0507      11.858         11.858         11.858         1667.379     
     41600   963.01324     -19451.225      7.8421915     -19443.383     -2974.8928      11.858         11.858         11.858         1667.379     
     41700   892.94815     -19450.669      7.2716243     -19443.397     -9059.9047      11.858         11.858         11.858         1667.379     
     41800   905.52994     -19450.783      7.3740827     -19443.409     -1336.3532      11.858         11.858         11.858         1667.379     
     41900   782.76308     -19449.796      6.3743444     -19443.422     -7366.0486      11.858         11.858         11.858         1667.379     
     42000   881.08448     -19450.575      7.1750138     -19443.4       -5630.9881      11.858         11.858         11.858         1667.379     
     42100   1020.2074     -19451.701      8.3079458     -19443.393     -8729.5085      11.858         11.858         11.858         1667.379     
     42200   1070.8471     -19452.125      8.7203248     -19443.404     -10122.408      11.858         11.858         11.858         1667.379     
     42300   899.71253     -19450.77       7.3267092     -19443.444     -3900.3081      11.858         11.858         11.858         1667.379     
     42400   917.1904      -19451.006      7.4690383     -19443.537     -8962.7716      11.858         11.858         11.858         1667.379     
     42500   1076.4651     -19452.477      8.7660742     -19443.711     -3663.6126      11.858         11.858         11.858         1667.379     
     42600   906.25051     -19451.409      7.3799506     -19444.029     -3927.8597      11.858         11.858         11.858         1667.379     
     42700   927.0938      -19452.018      7.5496856     -19444.469     -7392.2026      11.858         11.858         11.858         1667.379     
     42800   770.81851     -19451.229      6.2770751     -19444.952     -5773.5216      11.858         11.858         11.858         1667.379     
     42900   877.2825      -19452.556      7.1440528     -19445.412     -1605.6909      11.858         11.858         11.858         1667.379     
     43000   801.27452     -19452.316      6.5250902     -19445.791     -2173.3128      11.858         11.858         11.858         1667.379     
     43100   945.27957     -19453.758      7.6977794     -19446.061     -5452.9138      11.858         11.858         11.858         1667.379     
     43200   862.69675     -19453.253      7.0252753     -19446.228     -6184.8532      11.858         11.858         11.858         1667.379     
     43300   762.06912     -19452.524      6.2058254     -19446.318     -4447.6063      11.858         11.858         11.858         1667.379     
     43400   802.20683     -19452.872      6.5326824     -19446.339     -7270.036       11.858         11.858         11.858         1667.379     
     43500   933.0902      -19453.887      7.5985166     -19446.288     -6308.5282      11.858         11.858         11.858         1667.379     
     43600   702.67485     -19451.934      5.7221548     -19446.212     -2075.332       11.858         11.858         11.858         1667.379     
     43700   773.72183     -19452.365      6.3007179     -19446.065     -4027.4934      11.858         11.858         11.858         1667.379     
     43800   802.22441     -19452.376      6.5328256     -19445.843     -5939.3264      11.858         11.858         11.858         1667.379     
     43900   932.52777     -19453.155      7.5939365     -19445.561     -6028.3892      11.858         11.858         11.858         1667.379     
     44000   787.34302     -19451.67       6.4116406     -19445.258     -1303.5799      11.858         11.858         11.858         1667.379     
     44100   818.90442     -19451.624      6.6686574     -19444.956     -4196.0164      11.858         11.858         11.858         1667.379     
     44200   830.17122     -19451.421      6.7604073     -19444.661     -720.56462      11.858         11.858         11.858         1667.379     
     44300   867.83037     -19451.459      7.0670804     -19444.392     -1092.5277      11.858         11.858         11.858         1667.379     
     44400   775.91413     -19450.471      6.3185707     -19444.152      1411.6891      11.858         11.858         11.858         1667.379     
     44500   872.76529     -19451.064      7.1072674     -19443.956     -1327.722       11.858         11.858         11.858         1667.379     
     44600   905.65637     -19451.202      7.3751122     -19443.827     -2354.6786      11.858         11.858         11.858         1667.379     
     44700   831.70938     -19450.497      6.7729332     -19443.724     -3346.4381      11.858         11.858         11.858         1667.379     
     44800   946.85311     -19451.345      7.7105934     -19443.635     -2551.6718      11.858         11.858         11.858         1667.379     
     44900   969.34955     -19451.464      7.8937906     -19443.57      -1395.1526      11.858         11.858         11.858         1667.379     
     45000   1086.1276     -19452.364      8.8447596     -19443.519     -7054.6249      11.858         11.858         11.858         1667.379     
     45100   700.33671     -19449.22       5.7031143     -19443.517      424.78969      11.858         11.858         11.858         1667.379     
     45200   864.03629     -19450.523      7.0361837     -19443.487      1669.6133      11.858         11.858         11.858         1667.379     
     45300   948.45981     -19451.18       7.7236773     -19443.456     -1218.5251      11.858         11.858         11.858         1667.379     
     45400   917.25001     -19450.936      7.4695238     -19443.466     -10766.417      11.858         11.858         11.858         1667.379     
     45500   1010.2737     -19451.726      8.2270521     -19443.499     -5004.4553      11.858         11.858         11.858         1667.379     
     45600   998.2269      -19451.723      8.1289501     -19443.594      967.65353      11.858         11.858         11.858         1667.379     
     45700   848.65713     -19450.667      6.9109453     -19443.756     -4358.1359      11.858         11.858         11.858         1667.379     
     45800   958.79144     -19451.771      7.8078118     -19443.964     -2831.7874      11.858         11.858         11.858         1667.379     
     45900   946.41016     -19451.994      7.7069863     -19444.287      1345.5426      11.858         11.858         11.858         1667.379     
     46000   822.29108     -19451.371      6.6962363     -19444.675     -3108.4199      11.858         11.858         11.858         1667.379     
     46100   796.43689     -19451.562      6.4856955     -19445.076     -4948.3161      11.858         11.858         11.858         1667.379     
     46200   755.68052     -19451.615      6.1538005     -19445.461     -1707.0892      11.858         11.858         11.858         1667.379     
     46300   777.63991     -19452.114      6.3326244     -19445.781     -6792.7465      11.858         11.858         11.858         1667.379     
     46400   841.7201      -19452.875      6.8544543     -19446.021     -4334.9662      11.858         11.858         11.858         1667.379     
     46500   726.42079     -19452.08       5.9155272     -19446.164      2740.3133      11.858         11.858         11.858         1667.379     
     46600   804.42936     -19452.754      6.5507813     -19446.204     -3828.838       11.858         11.858         11.858         1667.379     
     46700   755.98062     -19452.337      6.1562443     -19446.181     -5287.6191      11.858         11.858         11.858         1667.379     
     46800   797.44315     -19452.594      6.4938899     -19446.1       -5733.6693      11.858         11.858         11.858         1667.379     
     46900   784.36866     -19452.383      6.3874192     -19445.996     -2798.6077      11.858         11.858         11.858         1667.379     
     47000   790.39184     -19452.312      6.4364683     -19445.875     -4321.4567      11.858         11.858         11.858         1667.379     
     47100   922.92485     -19453.264      7.5157362     -19445.748     -6233.9158      11.858         11.858         11.858         1667.379     
     47200   774.47906     -19451.917      6.3068843     -19445.61      -4832.5409      11.858         11.858         11.858         1667.379     
     47300   859.71689     -19452.441      7.0010092     -19445.44       425.73716      11.858         11.858         11.858         1667.379     
     47400   919.5921      -19452.738      7.4885964     -19445.249     -6641.3109      11.858         11.858         11.858         1667.379     
     47500   892.80472     -19452.339      7.2704563     -19445.068     -4041.4572      11.858         11.858         11.858         1667.379     
     47600   921.1297      -19452.382      7.5011176     -19444.881     -1199.3629      11.858         11.858         11.858         1667.379     
     47700   851.98395     -19451.627      6.9380368     -19444.689     -5655.5646      11.858         11.858         11.858         1667.379     
     47800   867.73856     -19451.548      7.0663328     -19444.482     -6715.199       11.858         11.858         11.858         1667.379     
     47900   923.96622     -19451.782      7.5242165     -19444.258     -5705.6961      11.858         11.858         11.858         1667.379     
     48000   894.61014     -19451.339      7.2851585     -19444.054     -2606.4771      11.858         11.858         11.858         1667.379     
     48100   1012.0556     -19452.108      8.2415629     -19443.867     -3944.7799      11.858         11.858         11.858         1667.379     
     48200   893.99281     -19451.006      7.2801314     -19443.726     -5927.9484      11.858         11.858         11.858         1667.379     
     48300   917.13902     -19451.041      7.4686199     -19443.572     -516.03953      11.858         11.858         11.858         1667.379     
     48400   816.03103     -19450.088      6.6452582     -19443.443     -11526.575      11.858         11.858         11.858         1667.379     
     48500   1013.1812     -19451.539      8.2507291     -19443.288     -6944.1594      11.858         11.858         11.858         1667.379     
     48600   967.67913     -19450.994      7.8801877     -19443.114     -2685.923       11.858         11.858         11.858         1667.379     
     48700   1058.0514     -19451.613      8.6161241     -19442.997     -1659.2984      11.858         11.858         11.858         1667.379     
     48800   1019.7113     -19451.223      8.3039059     -19442.919     -4452.1264      11.858         11.858         11.858         1667.379     
     48900   928.85614     -19450.47       7.564037      -19442.906     -2764.7996      11.858         11.858         11.858         1667.379     
     49000   950.23117     -19450.667      7.7381022     -19442.929     -9066.8155      11.858         11.858         11.858         1667.379     
     49100   902.48679     -19450.333      7.3493011     -19442.984     -2577.5622      11.858         11.858         11.858         1667.379     
     49200   932.20359     -19450.699      7.5912966     -19443.107     -6954.6572      11.858         11.858         11.858         1667.379     
     49300   840.62611     -19450.18       6.8455456     -19443.334     -5724.9025      11.858         11.858         11.858         1667.379     
     49400   818.81012     -19450.266      6.6678895     -19443.598     -9740.8212      11.858         11.858         11.858         1667.379     
     49500   835.28964     -19450.685      6.8020886     -19443.883     -6339.9997      11.858         11.858         11.858         1667.379     
     49600   837.04019     -19451.01       6.816344      -19444.193     -6091.1475      11.858         11.858         11.858         1667.379     
     49700   800.67195     -19450.999      6.5201832     -19444.479     -2166.3186      11.858         11.858         11.858         1667.379     
     49800   907.87188     -19452.113      7.393154      -19444.72      -7821.629       11.858         11.858         11.858         1667.379     
     49900   959.56397     -19452.76       7.8141028     -19444.946     -5622.9165      11.858         11.858         11.858         1667.379     
     50000   848.57762     -19452.051      6.9102977     -19445.141     -1732.8624      11.858         11.858         11.858         1667.379     
     50100   956.83765     -19453.088      7.7919013     -19445.296     -6370.7914      11.858         11.858         11.858         1667.379     
     50200   846.96181     -19452.336      6.8971396     -19445.438     -4151.2941      11.858         11.858         11.858         1667.379     
     50300   795.01379     -19452.045      6.4741066     -19445.571     -2073.1089      11.858         11.858         11.858         1667.379     
     50400   803.73839     -19452.214      6.5451545     -19445.669     -2858.7028      11.858         11.858         11.858         1667.379     
     50500   854.70304     -19452.692      6.9601794     -19445.731     -1160.598       11.858         11.858         11.858         1667.379     
     50600   822.81085     -19452.46       6.7004689     -19445.759     -3407.1827      11.858         11.858         11.858         1667.379     
     50700   798.56528     -19452.253      6.5030278     -19445.75      -7530.3658      11.858         11.858         11.858         1667.379     
     50800   820.71037     -19452.376      6.6833639     -19445.692     -3457.8474      11.858         11.858         11.858         1667.379     
     50900   770.53716     -19451.855      6.2747839     -19445.58      -8627.0744      11.858         11.858         11.858         1667.379     
     51000   776.56497     -19451.699      6.3238708     -19445.375      1404.7246      11.858         11.858         11.858         1667.379     
     51100   770.39949     -19451.336      6.2736629     -19445.063     -6219.5486      11.858         11.858         11.858         1667.379     
     51200   927.20168     -19452.143      7.5505641     -19444.592     -3942.2433      11.858         11.858         11.858         1667.379     
     51300   913.84753     -19451.556      7.441816      -19444.114     -6128.7972      11.858         11.858         11.858         1667.379     
     51400   944.1465      -19451.345      7.6885523     -19443.656     -1025.5142      11.858         11.858         11.858         1667.379     
     51500   891.8355      -19450.6        7.2625635     -19443.338     -844.57605      11.858         11.858         11.858         1667.379     
     51600   1065.8877     -19451.807      8.679938      -19443.127     -4524.6728      11.858         11.858         11.858         1667.379     
     51700   957.16065     -19450.823      7.7945317     -19443.029     -305.86147      11.858         11.858         11.858         1667.379     
     51800   898.88338     -19450.316      7.3199571     -19442.996      1868.1886      11.858         11.858         11.858         1667.379     
     51900   884.748       -19450.194      7.2048472     -19442.989     -175.05929      11.858         11.858         11.858         1667.379     
     52000   885.66911     -19450.221      7.2123482     -19443.008     -662.51025      11.858         11.858         11.858         1667.379     
     52100   905.23153     -19450.421      7.3716526     -19443.049     -6792.2226      11.858         11.858         11.858         1667.379     
[...]
     87400   853.64891     -19452.076      6.9515953     -19445.125     -4376.3042      11.858         11.858         11.858         1667.379     
     87500   928.1646      -19452.771      7.5584055     -19445.212     -3232.6755      11.858         11.858         11.858         1667.379     
     87600   904.13445     -19452.641      7.3627187     -19445.279     -1075.3893      11.858         11.858         11.858         1667.379     
     87700   848.70028     -19452.246      6.9112967     -19445.335     -1187.6755      11.858         11.858         11.858         1667.379     
     87800   853.94691     -19452.31       6.954022      -19445.356     -6485.0292      11.858         11.858         11.858         1667.379     
     87900   981.05628     -19453.327      7.989123      -19445.338     -7266.4691      11.858         11.858         11.858         1667.379     
     88000   842.83899     -19452.146      6.8635659     -19445.283     -1939.1285      11.858         11.858         11.858         1667.379     
     88100   835.01244     -19451.976      6.7998312     -19445.176      4637.7768      11.858         11.858         11.858         1667.379     
     88200   986.71655     -19453.036      8.0352168     -19445.001     -1820.8238      11.858         11.858         11.858         1667.379     
     88300   775.57354     -19451.079      6.3157971     -19444.763     -4819.6955      11.858         11.858         11.858         1667.379     
     88400   837.72293     -19451.259      6.8219038     -19444.438     -5460.0407      11.858         11.858         11.858         1667.379     
     88500   992.49462     -19452.055      8.0822699     -19443.973     -6447.8423      11.858         11.858         11.858         1667.379     
     88600   891.68286     -19450.808      7.2613205     -19443.547     -5251.8765      11.858         11.858         11.858         1667.379     
     88700   971.4507      -19451.046      7.910901      -19443.135     -3482.6961      11.858         11.858         11.858         1667.379     
     88800   1090.6563     -19451.671      8.8816387     -19442.789      1189.988       11.858         11.858         11.858         1667.379     
     88900   928.84333     -19450.12       7.5639327     -19442.556      2159.9884      11.858         11.858         11.858         1667.379     
     89000   924.79024     -19449.955      7.5309268     -19442.424     -979.96872      11.858         11.858         11.858         1667.379     
     89100   1014.1218     -19450.63       8.2583885     -19442.372     -10657.338      11.858         11.858         11.858         1667.379     
     89200   899.31994     -19449.707      7.3235122     -19442.384     -1516.0911      11.858         11.858         11.858         1667.379     
     89300   930.83969     -19450.001      7.5801898     -19442.421     -2416.6872      11.858         11.858         11.858         1667.379     
     89400   970.04285     -19450.415      7.8994364     -19442.515     -3179.8992      11.858         11.858         11.858         1667.379     
     89500   925.22115     -19450.21       7.5344359     -19442.675     -3950.7238      11.858         11.858         11.858         1667.379     
     89600   855.75304     -19449.849      6.96873       -19442.88       601.2617       11.858         11.858         11.858         1667.379     
     89700   959.89551     -19450.913      7.8168026     -19443.097     -3379.315       11.858         11.858         11.858         1667.379     
     89800   925.05077     -19450.872      7.5330484     -19443.339     -9196.2502      11.858         11.858         11.858         1667.379     
     89900   873.26366     -19450.715      7.1113258     -19443.604     -4278.8208      11.858         11.858         11.858         1667.379     
     90000   838.18679     -19450.718      6.8256812     -19443.893     -6308.7185      11.858         11.858         11.858         1667.379     
     90100   719.7358      -19450.011      5.8610887     -19444.15      -4108.2277      11.858         11.858         11.858         1667.379     
     90200   707.16886     -19450.109      5.7587512     -19444.35      -5257.6587      11.858         11.858         11.858         1667.379     
     90300   853.82483     -19451.418      6.9530279     -19444.465     -6504.0495      11.858         11.858         11.858         1667.379     
     90400   845.65476     -19451.412      6.8864958     -19444.525     -2694.9598      11.858         11.858         11.858         1667.379     
     90500   737.71913     -19450.541      6.0075339     -19444.533     -2529.5438      11.858         11.858         11.858         1667.379     
     90600   860.85332     -19451.495      7.0102635     -19444.485     -5919.4663      11.858         11.858         11.858         1667.379     
     90700   927.02678     -19451.96       7.5491398     -19444.411     -2895.5915      11.858         11.858         11.858         1667.379     
     90800   924.27257     -19451.853      7.5267112     -19444.326     -364.21237      11.858         11.858         11.858         1667.379     
     90900   758.77901     -19450.435      6.1790327     -19444.256      5147.8789      11.858         11.858         11.858         1667.379     
     91000   939.37918     -19451.812      7.6497302     -19444.163     -3322.7441      11.858         11.858         11.858         1667.379     
     91100   940.12991     -19451.749      7.6558437     -19444.093     -1246.8388      11.858         11.858         11.858         1667.379     
     91200   870.35608     -19451.144      7.0876483     -19444.056     -2722.4897      11.858         11.858         11.858         1667.379     
     91300   827.06682     -19450.759      6.7351269     -19444.023     -2498.5658      11.858         11.858         11.858         1667.379     
     91400   915.09759     -19451.347      7.4519958     -19443.895     -1889.336       11.858         11.858         11.858         1667.379     
     91500   847.35485     -19450.529      6.9003403     -19443.629     -1522.1241      11.858         11.858         11.858         1667.379     
     91600   877.55331     -19450.423      7.1462581     -19443.277     -4102.5709      11.858         11.858         11.858         1667.379     
     91700   982.73978     -19450.823      8.0028324     -19442.82      -2474.8596      11.858         11.858         11.858         1667.379     
     91800   824.12514     -19449.135      6.7111717     -19442.423     -5752.5756      11.858         11.858         11.858         1667.379     
     91900   978.8997      -19450.036      7.9715612     -19442.064     -4571.2797      11.858         11.858         11.858         1667.379     
     92000   968.78842     -19449.693      7.8892211     -19441.804     -5469.9939      11.858         11.858         11.858         1667.379     
     92100   1030.1283     -19450.037      8.3887359     -19441.648     -702.31341      11.858         11.858         11.858         1667.379     
     92200   1080.9136     -19450.439      8.8022997     -19441.637     -2232.6355      11.858         11.858         11.858         1667.379     
     92300   1013.8524     -19449.995      8.2561949     -19441.738     -3726.1186      11.858         11.858         11.858         1667.379     
     92400   1022.0784     -19450.245      8.3231823     -19441.922     -7144.4582      11.858         11.858         11.858         1667.379     
     92500   994.08029     -19450.254      8.0951826     -19442.159     -12064.001      11.858         11.858         11.858         1667.379     
     92600   998.40652     -19450.585      8.1304128     -19442.454     -6900.1014      11.858         11.858         11.858         1667.379     
     92700   955.60868     -19450.556      7.7818933     -19442.774     -2148.4537      11.858         11.858         11.858         1667.379     
     92800   1001.0582     -19451.286      8.1520064     -19443.134     -229.01886      11.858         11.858         11.858         1667.379     
     92900   886.58078     -19450.686      7.2197723     -19443.467     -9061.1902      11.858         11.858         11.858         1667.379     
     93000   991.52585     -19451.796      8.0743808     -19443.721     -5156.386       11.858         11.858         11.858         1667.379     
     93100   987.40224     -19451.998      8.0408007     -19443.957     -2761.5149      11.858         11.858         11.858         1667.379     
     93200   862.01069     -19451.202      7.0196885     -19444.182     -1758.325       11.858         11.858         11.858         1667.379     
     93300   908.61343     -19451.757      7.3991928     -19444.358      265.28513      11.858         11.858         11.858         1667.379     
     93400   750.37301     -19450.587      6.1105794     -19444.476     -2453.1061      11.858         11.858         11.858         1667.379     
     93500   841.30685     -19451.373      6.8510891     -19444.522     -3591.8904      11.858         11.858         11.858         1667.379     
     93600   835.47873     -19451.339      6.8036284     -19444.535     -9069.4543      11.858         11.858         11.858         1667.379     
     93700   822.46278     -19451.235      6.6976345     -19444.538     -2852.0894      11.858         11.858         11.858         1667.379     
     93800   909.74236     -19451.952      7.408386      -19444.544     -4704.8854      11.858         11.858         11.858         1667.379     
     93900   898.39914     -19451.858      7.3160138     -19444.542     -2793.1976      11.858         11.858         11.858         1667.379     
     94000   968.31873     -19452.442      7.8853962     -19444.557     -3862.4395      11.858         11.858         11.858         1667.379     
     94100   895.49885     -19451.877      7.2923956     -19444.585     -1962.0189      11.858         11.858         11.858         1667.379     
     94200   970.57443     -19452.507      7.9037652     -19444.603     -7940.7976      11.858         11.858         11.858         1667.379     
     94300   819.1839      -19451.301      6.6709333     -19444.63      -58.714776      11.858         11.858         11.858         1667.379     
     94400   883.10139     -19451.841      7.1914383     -19444.65      -4241.24        11.858         11.858         11.858         1667.379     
     94500   882.41302     -19451.843      7.1858326     -19444.657     -6855.8423      11.858         11.858         11.858         1667.379     
     94600   761.17715     -19450.839      6.1985617     -19444.64      -5011.0043      11.858         11.858         11.858         1667.379     
     94700   777.86089     -19450.889      6.334424      -19444.555     -6856.9692      11.858         11.858         11.858         1667.379     
     94800   901.68248     -19451.72       7.3427513     -19444.377     -6696.9875      11.858         11.858         11.858         1667.379     
     94900   812.57169     -19450.808      6.6170875     -19444.191     -1544.3541      11.858         11.858         11.858         1667.379     
     95000   862.90606     -19450.957      7.0269799     -19443.93      -529.03579      11.858         11.858         11.858         1667.379     
     95100   860.31753     -19450.674      7.0059004     -19443.668     -4049.5776      11.858         11.858         11.858         1667.379     
     95200   1019.5611     -19451.703      8.302683      -19443.4       -7140.5713      11.858         11.858         11.858         1667.379     
     95300   1005.293      -19451.328      8.1864919     -19443.141     -2866.9545      11.858         11.858         11.858         1667.379     
     95400   961.28487     -19450.778      7.8281168     -19442.949     -6775.8584      11.858         11.858         11.858         1667.379     
     95500   964.0892      -19450.635      7.8509535     -19442.785      4.9179903      11.858         11.858         11.858         1667.379     
     95600   1036.544      -19451.128      8.4409814     -19442.687     -3751.0913      11.858         11.858         11.858         1667.379     
     95700   984.8193      -19450.648      8.0197668     -19442.629     -6113.8314      11.858         11.858         11.858         1667.379     
     95800   1005.7242     -19450.799      8.1900036     -19442.609     -3950.0301      11.858         11.858         11.858         1667.379     
     95900   851.56393     -19449.539      6.9346165     -19442.605     -12031.768      11.858         11.858         11.858         1667.379     
     96000   930.18583     -19450.178      7.5748652     -19442.603     -4431.9656      11.858         11.858         11.858         1667.379     
     96100   881.17984     -19449.808      7.1757903     -19442.632     -3989.2119      11.858         11.858         11.858         1667.379     
     96200   948.29205     -19450.433      7.7223112     -19442.711     -2131.5217      11.858         11.858         11.858         1667.379     
     96300   1014.1236     -19451.107      8.2584032     -19442.849      748.03531      11.858         11.858         11.858         1667.379     
     96400   768.45342     -19449.328      6.2578152     -19443.07      -43.55321       11.858         11.858         11.858         1667.379     
     96500   1042.211      -19451.879      8.4871295     -19443.392     -2422.4154      11.858         11.858         11.858         1667.379     
     96600   782.80917     -19450.147      6.3747197     -19443.772     -4118.6143      11.858         11.858         11.858         1667.379     
     96700   854.96746     -19451.104      6.9623327     -19444.141     -1155.9804      11.858         11.858         11.858         1667.379     
     96800   891.54466     -19451.753      7.2601951     -19444.493     -5428.6437      11.858         11.858         11.858         1667.379     
     96900   803.63133     -19451.33       6.5442826     -19444.786     -3327.8559      11.858         11.858         11.858         1667.379     
     97000   822.62446     -19451.691      6.6989511     -19444.992     -1628.865       11.858         11.858         11.858         1667.379     
     97100   729.39218     -19451.075      5.9397244     -19445.135      109.22974      11.858         11.858         11.858         1667.379     
     97200   847.4998      -19452.108      6.9015206     -19445.207     -2193.024       11.858         11.858         11.858         1667.379     
     97300   842.47398     -19452.084      6.8605935     -19445.223     -2150.4013      11.858         11.858         11.858         1667.379     
     97400   812.11915     -19451.804      6.6134023     -19445.191     -155.21655      11.858         11.858         11.858         1667.379     
     97500   808.12326     -19451.675      6.5808622     -19445.094     -7334.0771      11.858         11.858         11.858         1667.379     
     97600   817.54673     -19451.608      6.6576012     -19444.95      -3405.2427      11.858         11.858         11.858         1667.379     
     97700   886.39381     -19451.936      7.2182498     -19444.717     -730.36522      11.858         11.858         11.858         1667.379     
     97800   962.43206     -19452.296      7.8374588     -19444.458     -1152.7502      11.858         11.858         11.858         1667.379     
     97900   903.71527     -19451.582      7.3593051     -19444.223      2225.4035      11.858         11.858         11.858         1667.379     
     98000   957.68909     -19451.751      7.7988349     -19443.952     -1481.3992      11.858         11.858         11.858         1667.379     
     98100   959.87825     -19451.499      7.8166621     -19443.682     -2455.4286      11.858         11.858         11.858         1667.379     
     98200   999.2669      -19451.569      8.1374192     -19443.432     -3012.3474      11.858         11.858         11.858         1667.379     
     98300   960.91275     -19451.048      7.8250864     -19443.223     -4288.4839      11.858         11.858         11.858         1667.379     
     98400   930.59882     -19450.591      7.5782283     -19443.013     -1049.447       11.858         11.858         11.858         1667.379     
     98500   875.38093     -19449.974      7.1285676     -19442.845     -3366.167       11.858         11.858         11.858         1667.379     
     98600   1076.4248     -19451.466      8.765746      -19442.7       -6618.1128      11.858         11.858         11.858         1667.379     
     98700   995.62323     -19450.747      8.1077474     -19442.64      -2016.2949      11.858         11.858         11.858         1667.379     
     98800   926.45251     -19450.241      7.5444633     -19442.696     -1759.4057      11.858         11.858         11.858         1667.379     
     98900   1105.8586     -19451.843      9.0054369     -19442.837     -8673.9761      11.858         11.858         11.858         1667.379     
     99000   850.04919     -19450.104      6.9222813     -19443.182     -845.02927      11.858         11.858         11.858         1667.379     
     99100   933.75254     -19451.368      7.6039103     -19443.764     -3193.0596      11.858         11.858         11.858         1667.379     
     99200   819.22879     -19451.163      6.6712988     -19444.491      762.4138       11.858         11.858         11.858         1667.379     
     99300   891.85562     -19452.358      7.2627273     -19445.095     -3029.3881      11.858         11.858         11.858         1667.379     
     99400   850.16691     -19452.337      6.92324       -19445.414     -6354.2532      11.858         11.858         11.858         1667.379     
     99500   753.45996     -19451.765      6.1357177     -19445.629     -3479.2755      11.858         11.858         11.858         1667.379     
     99600   778.79255     -19452.085      6.3420108     -19445.743     -8741.9184      11.858         11.858         11.858         1667.379     
     99700   779.53373     -19452.131      6.3480465     -19445.783     -8716.6349      11.858         11.858         11.858         1667.379     
     99800   777.10384     -19452.086      6.328259      -19445.758     -6059.1379      11.858         11.858         11.858         1667.379     
     99900   809.53929     -19452.244      6.5923934     -19445.652     -10130.263      11.858         11.858         11.858         1667.379     
    100000   825.90633     -19452.206      6.7256766     -19445.48       836.99891      11.858         11.858         11.858         1667.379     
Loop time of 216.54 on 1 procs for 100000 steps with 64 atoms

Performance: 39.900 ns/day, 0.601 hours/ns, 461.810 timesteps/s
114.3% CPU use with 1 MPI tasks x 1 OpenMP threads

MPI task timing breakdown:
Section |  min time  |  avg time  |  max time  |%varavg| %total
---------------------------------------------------------------
Pair    | 214.04     | 214.04     | 214.04     |   0.0 | 98.85
Neigh   | 1.1203     | 1.1203     | 1.1203     |   0.0 |  0.52
Comm    | 0.47955    | 0.47955    | 0.47955    |   0.0 |  0.22
Output  | 0.13418    | 0.13418    | 0.13418    |   0.0 |  0.06
Modify  | 0.65063    | 0.65063    | 0.65063    |   0.0 |  0.30
Other   |            | 0.1127     |            |       |  0.05

Nlocal:             64 ave          64 max          64 min
Histogram: 1 0 0 0 0 0 0 0 0 0
Nghost:            985 ave         985 max         985 min
Histogram: 1 0 0 0 0 0 0 0 0 0
Neighs:           3716 ave        3716 max        3716 min
Histogram: 1 0 0 0 0 0 0 0 0 0
FullNghs:         7432 ave        7432 max        7432 min
Histogram: 1 0 0 0 0 0 0 0 0 0

Total # of neighbors = 7432
Ave neighs/atom = 116.125
Neighbor list builds = 2773
Dangerous builds = 0
Total wall time: 0:03:42
