-1.944810122889999911e+04
-1.944815141959999892e+04
-1.944827254309999989e+04
-1.944845653120000134e+04
-1.944869088760000159e+04
-1.944896002980000048e+04
-1.944924668129999918e+04
-1.944953340350000144e+04
-1.944980411539999841e+04
-1.945004512350000005e+04
-1.945024599110000054e+04
-1.945040003090000027e+04
-1.945055925679999928e+04
-1.945056890729999941e+04
-1.945053969599999982e+04
-1.945048003429999881e+04
-1.945039954289999878e+04
-1.945030831929999840e+04
-1.945021612900000036e+04
-1.945013180799999827e+04
-1.945001348180000059e+04
-1.944998734369999875e+04
-1.944998436569999831e+04
-1.945000237729999935e+04
-1.945013678739999887e+04
-1.945019064559999970e+04
-1.945024153590000060e+04
-1.945028672910000023e+04
-1.945032508009999947e+04
-1.945035673659999884e+04
-1.945038293329999942e+04
-1.945040566110000145e+04
-1.945042713490000096e+04
-1.945044969670000137e+04
-1.945047520770000119e+04
-1.945050503480000043e+04
-1.945053974820000076e+04
-1.945057925350000005e+04
-1.945062266159999854e+04
-1.945071535379999841e+04
-1.945080355019999843e+04
-1.945084131540000089e+04
-1.945087281319999965e+04
-1.945089677650000158e+04
-1.945091244519999964e+04
-1.945091933419999987e+04
-1.945091729750000013e+04
-1.945090643990000171e+04
-1.945088713360000111e+04
-1.945085993600000074e+04
-1.945082561490000080e+04
-1.945078497319999951e+04
-1.945068876140000066e+04
-1.945063546370000040e+04
-1.945058038410000154e+04
-1.945052492849999908e+04
-1.945047065350000048e+04
-1.945041935780000131e+04
-1.945033387669999865e+04
-1.945028631099999984e+04
-1.945028215790000104e+04
-1.945029325519999838e+04
-1.945032017400000041e+04
-1.945036252239999885e+04
-1.945048661920000086e+04
-1.945056276710000020e+04
-1.945088561090000076e+04
-1.945095839290000004e+04
-1.945102559639999890e+04
-1.945108738230000017e+04
-1.945114446220000173e+04
-1.945119798230000015e+04
-1.945129950090000057e+04
-1.945135007649999898e+04
-1.945151044289999845e+04
-1.945156708950000029e+04
-1.945168149669999912e+04
-1.945178923959999884e+04
-1.945187920429999940e+04
-1.945196044310000070e+04
-1.945197086230000059e+04
-1.945196779130000141e+04
-1.945195589580000160e+04
-1.945193858389999878e+04
-1.945189313509999920e+04
-1.945184194360000038e+04
-1.945179401050000160e+04
-1.945177335149999999e+04
-1.945175571340000170e+04
-1.945174152980000144e+04
-1.945172480329999962e+04
-1.945172261970000181e+04
-1.945172467089999918e+04
-1.945173077869999906e+04
-1.945174064029999863e+04
-1.945175378410000121e+04
-1.945178731350000089e+04
-1.945180632770000011e+04
-1.945182601430000068e+04
-1.945188498619999882e+04
-1.945190353120000145e+04
-1.945192109619999974e+04
-1.945195219989999896e+04
-1.945196578450000015e+04
-1.945199200779999956e+04
-1.945200719050000043e+04
-1.945202585149999868e+04
-1.945204956709999897e+04
-1.945207958670000153e+04
-1.945216077180000138e+04
-1.945221131260000038e+04
-1.945226720800000112e+04
-1.945232671119999941e+04
-1.945244846390000021e+04
-1.945250631559999965e+04
-1.945255921450000096e+04
-1.945260539720000088e+04
-1.945264324629999828e+04
-1.945267173349999939e+04
-1.945269901620000019e+04
-1.945269825040000069e+04
-1.945268893680000110e+04
-1.945267232130000048e+04
-1.945264975910000067e+04
-1.945262271060000057e+04
-1.945259258720000071e+04
-1.945249421779999830e+04
-1.945242732709999837e+04
-1.945239350719999857e+04
-1.945228583749999962e+04
-1.945216357440000138e+04
-1.945211973139999827e+04
-1.945202857040000163e+04
-1.945198163249999925e+04
-1.945193395070000042e+04
-1.945183671469999899e+04
-1.945178750310000032e+04
-1.945173831939999945e+04
-1.945168966020000153e+04
-1.945164213709999967e+04
-1.945159635630000048e+04
-1.945151244299999962e+04
-1.945147520539999823e+04
-1.945144148520000090e+04
-1.945141135569999824e+04
-1.945138478979999854e+04
-1.945131119229999968e+04
-1.945129969799999890e+04
-1.945129019060000064e+04
-1.945128194050000093e+04
-1.945126542899999913e+04
-1.945125472950000039e+04
-1.945124045589999878e+04
-1.945122104530000070e+04
-1.945119515170000159e+04
-1.945116146559999834e+04
-1.945111925110000084e+04
-1.945106816880000042e+04
-1.945100865889999841e+04
-1.945094173560000127e+04
-1.945086931049999839e+04
-1.945079398339999898e+04
-1.945064787480000086e+04
-1.945058442279999872e+04
-1.945053217059999952e+04
-1.945049402919999920e+04
-1.945047209139999904e+04
-1.945046723589999965e+04
-1.945054699919999985e+04
-1.945059708509999837e+04
-1.945065348870000162e+04
-1.945071280399999887e+04
-1.945077193679999982e+04
-1.945082832090000011e+04
-1.945088002309999865e+04
-1.945092567119999876e+04
-1.945099607739999919e+04
-1.945103801400000157e+04
-1.945104930360000071e+04
-1.945105538620000152e+04
-1.945105817150000075e+04
-1.945105903369999942e+04
-1.945106268239999918e+04
-1.945107127939999918e+04
-1.945108640920000107e+04
-1.945110879189999832e+04
-1.945117187550000017e+04
-1.945120797890000176e+04
-1.945127233649999835e+04
-1.945129355159999977e+04
-1.945130375899999854e+04
-1.945130131940000138e+04
-1.945125748889999886e+04
-1.945116943420000098e+04
-1.945111413149999862e+04
-1.945105470010000136e+04
-1.945099368970000069e+04
-1.945093326470000102e+04
-1.945087537819999852e+04
-1.945082158909999998e+04
-1.945077310819999911e+04
-1.945073098319999917e+04
-1.945069597159999830e+04
-1.945066857040000104e+04
-1.945064899620000142e+04
-1.945063698400000067e+04
-1.945063173900000038e+04
-1.945063632199999847e+04
-1.945064254879999862e+04
-1.945064879139999903e+04
-1.945065323490000083e+04
-1.945065440820000003e+04
-1.945065127859999848e+04
-1.945064328039999964e+04
-1.945063027739999961e+04
-1.945061253099999885e+04
-1.945059045429999969e+04
-1.945056481640000129e+04
-1.945053630880000128e+04
-1.945050577189999967e+04
-1.945040972699999838e+04
-1.945037892410000131e+04
-1.945035014969999975e+04
-1.945032430350000141e+04
-1.945028510520000054e+04
-1.945027345440000136e+04
-1.945026791040000171e+04
-1.945026877969999987e+04
-1.945027593490000072e+04
-1.945028898079999999e+04
-1.945030707930000062e+04
-1.945032916290000139e+04
-1.945035394920000181e+04
-1.945038007039999866e+04
-1.945040627930000119e+04
-1.945043131050000011e+04
-1.945045420839999861e+04
-1.945047435929999847e+04
-1.945049147589999848e+04
-1.945050553209999998e+04
-1.945051689120000083e+04
-1.945052604799999972e+04
-1.945054033530000015e+04
-1.945055356649999885e+04
-1.945056102710000050e+04
-1.945056951100000151e+04
-1.945057910600000105e+04
-1.945058986749999895e+04
-1.945060173429999850e+04
-1.945061449659999926e+04
-1.945062809130000096e+04
-1.945065700360000119e+04
-1.945067212239999935e+04
-1.945070373409999956e+04
-1.945073767859999862e+04
-1.945075582389999909e+04
-1.945077476409999872e+04
-1.945081507390000115e+04
-1.945083601600000111e+04
-1.945085709829999905e+04
-1.945087782240000161e+04
-1.945089768380000169e+04
-1.945091622400000051e+04
-1.945093295329999819e+04
-1.945096040640000138e+04
-1.945097151289999965e+04
-1.945098156369999924e+04
-1.945099146069999915e+04
-1.945100224760000128e+04
-1.945101512809999986e+04
-1.945105104520000168e+04
-1.945107561269999860e+04
-1.945110508119999940e+04
-1.945113935919999858e+04
-1.945117812960000083e+04
-1.945126552430000083e+04
-1.945131185819999882e+04
-1.945135812340000120e+04
-1.945140289340000163e+04
-1.945144465979999950e+04
-1.945148208019999947e+04
-1.945151405579999846e+04
-1.945153968900000109e+04
-1.945155846129999918e+04
-1.945157010040000023e+04
-1.945157469019999917e+04
-1.945157251850000102e+04
-1.945156404729999849e+04
-1.945153064269999959e+04
-1.945150698449999982e+04
-1.945147939960000076e+04
-1.945144803170000159e+04
-1.945141295280000122e+04
-1.945137398259999827e+04
-1.945128344089999882e+04
-1.945123190560000148e+04
-1.945117676729999948e+04
-1.945111935839999933e+04
-1.945106153930000073e+04
-1.945100584460000027e+04
-1.945085519610000119e+04
-1.945084387649999917e+04
-1.945084323740000036e+04
-1.945085173619999841e+04
-1.945086739419999867e+04
-1.945088797780000095e+04
-1.945091153839999970e+04
-1.945093644240000140e+04
-1.945096143600000141e+04
-1.945098579550000068e+04
-1.945100910120000117e+04
-1.945103129260000060e+04
-1.945105230260000098e+04
-1.945107239489999847e+04
-1.945109178410000095e+04
-1.945111076519999915e+04
-1.945112959490000139e+04
-1.945114863170000172e+04
-1.945116823719999957e+04
-1.945118878319999931e+04
-1.945121074230000158e+04
-1.945123457649999909e+04
-1.945128970459999982e+04
-1.945132179959999849e+04
-1.945135734489999959e+04
-1.945143933800000013e+04
-1.945148593279999841e+04
-1.945170867319999888e+04
-1.945177312389999861e+04
-1.945184089279999898e+04
-1.945191172179999921e+04
-1.945198505619999924e+04
-1.945206021400000100e+04
-1.945213608169999861e+04
-1.945221132859999852e+04
-1.945228425979999884e+04
-1.945235291370000050e+04
-1.945241521170000124e+04
-1.945246891379999943e+04
-1.945251183519999904e+04
-1.945254202280000027e+04
-1.945255766500000027e+04
-1.945255751149999924e+04
-1.945254074380000020e+04
-1.945231500410000081e+04
-1.945222726590000093e+04
-1.945213276179999957e+04
-1.945203510129999995e+04
-1.945193811619999906e+04
-1.945184531860000061e+04
-1.945175984679999965e+04
-1.945168397030000051e+04
-1.945161928750000152e+04
-1.945156634370000029e+04
-1.945152495289999933e+04
-1.945149405549999938e+04
-1.945147216069999922e+04
-1.945144746590000068e+04
-1.945144044869999925e+04
-1.945142717600000105e+04
-1.945141765799999848e+04
-1.945140467789999821e+04
-1.945136612859999877e+04
-1.945134049719999894e+04
-1.945131122029999824e+04
-1.945121017170000050e+04
-1.945117561980000028e+04
-1.945114243480000005e+04
-1.945103981289999865e+04
-1.945102483919999941e+04
-1.945101498340000035e+04
-1.945101069199999984e+04
-1.945101226699999825e+04
-1.945101996199999849e+04
-1.945105445519999921e+04
-1.945108093820000067e+04
-1.945111286249999830e+04
-1.945126818279999861e+04
-1.945130458930000168e+04
-1.945133591109999907e+04
-1.945136029639999833e+04
-1.945137617669999963e+04
-1.945138242080000055e+04
-1.945137833429999955e+04
-1.945136366750000161e+04
-1.945133861809999871e+04
-1.945130371319999904e+04
-1.945125984590000007e+04
-1.945120809509999890e+04
-1.945114979279999898e+04
-1.945108639770000082e+04
-1.945101949640000021e+04
-1.945088212479999856e+04
-1.945081518990000041e+04
-1.945075188269999853e+04
-1.945069397450000179e+04
-1.945060080960000050e+04
-1.945056806399999914e+04
-1.945054577789999894e+04
-1.945053425760000027e+04
-1.945053333249999923e+04
