34
Lattice="10.210621920333747 0.0 0.0 5.105310960166873 8.842657971447272 0.0 0.0 0.0 22.08423447177455" Properties=species:S:1:pos:R:3:tags:I:1:forces:R:3:energies:R:1 energy=11.625880434287998 free_energy=11.625880434287998 pbc="T T F"
Cu       0.00000000       1.47377633      10.00000000        2      -0.00000000       0.00438413       0.15454687       0.35957378
Cu       2.55265548       1.47377633      10.00000000        2       0.00024989       0.00014427       0.16027800       0.35963899
Cu       5.10531096       1.47377633      10.00000000        2       0.00000000       0.00000564       0.16066385       0.35965801
Cu       7.65796644       1.47377633      10.00000000        2      -0.00024989       0.00014427       0.16027800       0.35963899
Cu       1.27632774       3.68444082      10.00000000        2       0.00001583       0.00015883       0.16047543       0.35965801
Cu       3.82898322       3.68444082      10.00000000        2       0.00000489      -0.00000282       0.16066385       0.35965801
Cu       6.38163870       3.68444082      10.00000000        2      -0.00000489      -0.00000282       0.16066385       0.35965801
Cu       8.93429418       3.68444082      10.00000000        2      -0.00001583       0.00015883       0.16047543       0.35965801
Cu       2.55265548       5.89510531      10.00000000        2      -0.00012964      -0.00009312       0.16047543       0.35965801
Cu       5.10531096       5.89510531      10.00000000        2       0.00000000      -0.00028854       0.16027800       0.35963899
Cu       7.65796644       5.89510531      10.00000000        2       0.00012964      -0.00009312       0.16047543       0.35965801
Cu      10.21062192       5.89510531      10.00000000        2       0.00000000       0.00000000       0.16067097       0.35965801
Cu       3.82898322       8.10576981      10.00000000        2      -0.00379677      -0.00219206       0.15454687       0.35957378
Cu       6.38163870       8.10576981      10.00000000        2       0.00379677      -0.00219206       0.15454687       0.35957378
Cu       8.93429418       8.10576981      10.00000000        2       0.00014547      -0.00006571       0.16047543       0.35965801
Cu      11.48694966       8.10576981      10.00000000        2      -0.00014547      -0.00006571       0.16047543       0.35965801
Cu       0.00000000       0.00000000      12.08423447        1      -0.00000000      -0.00000000      -0.17465494       0.53063928
Cu       2.55265548       0.00000000      12.08423447        1      -0.00593160       0.00000127      -0.14712396       0.36036409
Cu       5.10531096       0.00000000      12.08423447        1       0.00000000      -0.00000002      -0.16066081       0.35965751
Cu       7.65796644       0.00000000      12.08423447        1       0.00593160       0.00000127      -0.14712396       0.36036409
Cu       1.27632774       2.21066449      12.08423447        1      -0.00296470      -0.00513755      -0.14712396       0.36036409
Cu       3.82898322       2.21066449      12.08423447        1      -0.00003207      -0.00001851      -0.16042538       0.35962410
Cu       6.38163870       2.21066449      12.08423447        1       0.00003207      -0.00001851      -0.16042538       0.35962410
Cu       8.93429418       2.21066449      12.08423447        1       0.00296470      -0.00513755      -0.14712396       0.36036409
Cu       2.55265548       4.42132899      12.08423447        1      -0.00000001       0.00000001      -0.16066081       0.35965751
Cu       5.10531096       4.42132899      12.08423447        1       0.00000000       0.00003703      -0.16042538       0.35962410
Cu       7.65796644       4.42132899      12.08423447        1       0.00000001       0.00000001      -0.16066081       0.35965751
Cu      10.21062192       4.42132899      12.08423447        1       0.00000000      -0.00003728      -0.16042585       0.35962410
Cu       3.82898322       6.63199348      12.08423447        1       0.00296690       0.00513628      -0.14712396       0.36036409
Cu       6.38163870       6.63199348      12.08423447        1      -0.00296690       0.00513628      -0.14712396       0.36036409
Cu       8.93429418       6.63199348      12.08423447        1      -0.00003228       0.00001864      -0.16042585       0.35962410
Cu      11.48694966       6.63199348      12.08423447        1       0.00003228       0.00001864      -0.16042585       0.35962410
N       -0.00000000      -0.00000000      14.17087660        0       0.00000000       0.00000000      -0.00715306      -0.18324354
N       -0.00000000       0.00000000      15.21541878        0       0.00000000       0.00000000      -0.04090179       0.12536463
