# LAMMPS data file written by OVITO Basic 3.7.5
108 atoms
2 atom types
0.0 13.4422702789 xlo xhi
0.0 13.4422702789 ylo yhi
0.0 13.4422702789 zlo zhi

Masses

1 6.941  # Li
2 35.453  # Cl

Atoms  # charge

1 1 0.0 9.10297966 1.4528499842 12.3941898346
2 1 0.0 11.53647995 2.3037500381 1.6365799904
3 1 0.0 1.3658800125 9.3088798523 4.9590802193
4 1 0.0 6.8843598366 7.4284901619 0.792750001
5 1 0.0 8.6099901199 4.6577000618 0.7656499743
6 1 0.0 5.3403501511 6.1174302101 8.1942100525
7 1 0.0 0.8631899953 1.1455099583 5.7978701591
8 1 0.0 6.5649600029 7.8935899734 4.9020400047
9 1 0.0 0.1319099963 9.8824701309 1.4521700144
10 1 0.0 3.218100071 7.3073501587 3.7325201035
11 1 0.0 1.7377500534 7.9981198311 11.2337903976
12 1 0.0 8.6723403931 5.783080101 7.8415899277
13 1 0.0 12.1505002975 4.9678797722 0.6353300214
14 1 0.0 2.3393499851 3.1762299538 13.3768396378
15 1 0.0 3.7056701183 8.849729538 7.5752501488
16 1 0.0 0.6383299828 0.8734300137 1.869230032
17 1 0.0 10.9203796387 4.3550601006 5.3536200523
18 1 0.0 9.2557497025 10.0426797867 4.7403798103
19 1 0.0 6.8792600632 10.7785997391 7.9696798325
20 1 0.0 11.1205301285 1.2135900259 4.8493599892
21 1 0.0 10.616979599 7.1911802292 3.5803198814
22 1 0.0 1.3444900513 4.8776397705 10.422249794
23 1 0.0 9.8085699081 10.0043001175 0.0056699999
24 1 0.0 7.922659874 10.2896203995 11.0869102478
25 1 0.0 12.5003499985 12.6260204315 12.9379301071
26 1 0.0 7.17208004 0.0194899999 10.6573495865
27 1 0.0 5.8843002319 8.4946899414 10.2731304169
28 1 0.0 6.7451400757 12.278459549 0.4329000115
29 1 0.0 13.3592996597 10.3806800842 9.5064697266
30 1 0.0 5.1823701859 4.1284399033 10.4334201813
31 1 0.0 8.6009302139 7.2598099709 10.3624000549
32 1 0.0 5.3991999626 0.2127099931 4.9280800819
33 1 0.0 1.3065400124 6.4279398918 1.7516000271
34 1 0.0 10.0905399323 12.0598201752 2.3988499641
35 1 0.0 0.3449200094 13.3404502869 8.7020397186
36 1 0.0 3.176429987 2.4965500832 7.8888001442
37 1 0.0 12.5020399094 5.1357998848 9.0987195969
38 1 0.0 3.2021999359 11.5461702347 11.2226600647
39 1 0.0 3.8711299896 9.6290197372 1.1645799875
40 1 0.0 11.692899704 7.3281698227 6.2681598663
41 1 0.0 10.0464496613 0.136649996 9.4392900467
42 1 0.0 3.5956799984 3.9661200047 4.1697402
43 1 0.0 6.8960299492 1.7181500196 8.4496498108
44 1 0.0 9.0788602829 4.0655498505 9.9920396805
45 1 0.0 7.7808499336 3.622469902 5.0807700157
46 1 0.0 4.016769886 5.6689600945 0.4278399944
47 1 0.0 7.2131700516 2.8852100372 2.1456699371
48 1 0.0 3.4301600456 12.6771297455 1.5890899897
49 1 0.0 12.4353599548 8.4747600555 12.0524396896
50 1 0.0 11.9482898712 11.3983602524 6.5254797935
51 1 0.0 6.2913298607 10.1398897171 3.1748099327
52 1 0.0 0.7629699707 5.2090201378 5.2076601982
53 1 0.0 10.20195961 8.9857797623 9.2766599655
54 1 0.0 3.2955598831 12.04088974 7.5499200821
55 2 0.0 1.9725099802 9.1827201843 2.8483300209
56 2 0.0 10.9944295883 0.3754099905 1.215370059
57 2 0.0 3.8090701103 7.32351017 9.6093196869
58 2 0.0 9.0043001175 11.2442798615 9.0360803604
59 2 0.0 7.4952597618 9.8974399567 5.4809498787
60 2 0.0 9.2760095596 6.6571698189 1.7562400103
61 2 0.0 5.3640999794 6.8553600311 6.279900074
62 2 0.0 9.194149971 6.9484300613 4.9613699913
63 2 0.0 12.1346797943 8.6377897263 8.2635002136
64 2 0.0 2.9514501095 5.1621899605 2.5235099792
65 2 0.0 10.2737903595 3.9394700527 12.774889946
66 2 0.0 2.8870699406 0.0109700002 5.4340901375
67 2 0.0 0.62154001 11.0024595261 7.4347200394
68 2 0.0 5.5447697639 8.0338096619 2.7807300091
69 2 0.0 12.3141298294 13.0624198914 10.457280159
70 2 0.0 12.5381402969 5.3636698723 3.2230401039
71 2 0.0 10.4005002975 5.9454498291 9.3086996078
72 2 0.0 10.201210022 8.7236099243 11.4127101898
73 2 0.0 13.259469986 6.453909874 10.9563598633
74 2 0.0 8.1718301773 12.1744699478 12.1814498901
75 2 0.0 0.5805100203 3.104279995 9.4375896454
76 2 0.0 3.6626300812 10.1187896729 5.853579998
77 2 0.0 6.1315398216 4.9408102036 1.2997499704
78 2 0.0 12.3802204132 4.9486699104 6.8224601746
79 2 0.0 7.1384701729 8.2058696747 12.0157299042
80 2 0.0 7.4675598145 1.0428999662 0.6944800019
81 2 0.0 3.3096699715 7.8237099648 13.2692604065
82 2 0.0 12.8076000214 7.4470300674 0.5665000081
83 2 0.0 12.023349762 10.5880699158 0.07553
84 2 0.0 2.8763101101 1.7595299482 1.6096099615
85 2 0.0 8.4582004547 10.7019300461 2.0168099403
86 2 0.0 1.2158600092 12.2027196884 0.7137299776
87 2 0.0 2.0473001003 3.4641799927 5.9986100197
88 2 0.0 8.7653398514 1.7625000477 9.800740242
89 2 0.0 3.1296200752 4.3839402199 11.8871898651
90 2 0.0 11.9983997345 9.0816898346 4.708990097
91 2 0.0 1.9374899864 7.1536297798 5.4408898354
92 2 0.0 10.5440301895 12.3996696472 4.7514400482
93 2 0.0 5.4765100479 10.8059101105 10.1413297653
94 2 0.0 0.1103399992 3.2618000507 0.567719996
95 2 0.0 13.1327695847 1.54666996 3.8767399788
96 2 0.0 5.9683299065 1.7800699472 10.9076299667
97 2 0.0 2.8244400024 0.3298400044 9.2785396576
98 2 0.0 7.5652899742 7.8846597672 8.4207296371
99 2 0.0 1.2088799477 10.1593103409 11.3026199341
100 2 0.0 6.7755198479 13.0152797699 7.079870224
101 2 0.0 5.3531699181 3.5733799934 7.882589817
102 2 0.0 12.1320495605 0.852339983 7.2376098633
103 2 0.0 5.4894099236 12.0708904266 2.9287700653
104 2 0.0 9.4865398407 2.6620399952 3.3274400234
105 2 0.0 9.3064403534 3.4913198948 6.6352701187
106 2 0.0 5.8468399048 2.629529953 3.9059700966
107 2 0.0 7.0047798157 5.3034000397 10.0816297531
108 2 0.0 4.4860801697 11.4718704224 13.3586997986
