ITEM: TIMESTEP
0
ITEM: NUMBER OF ATOMS
108
ITEM: BOX BOUNDS pp pp pp
0.0000000000000000e+00 1.3442270278900001e+01
0.0000000000000000e+00 1.3442270278900001e+01
0.0000000000000000e+00 1.3442270278900001e+01
ITEM: ATOMS id type x y z
7 1 0.86319 1.14551 5.79787
16 1 0.63833 0.87343 1.86923
32 1 5.3992 0.21271 4.92808
33 1 1.30654 6.42794 1.7516
42 1 3.59568 3.96612 4.16974
46 1 4.01677 5.66896 0.42784
52 1 0.76297 5.20902 5.20766
64 2 2.95145 5.16219 2.52351
66 2 2.88707 0.01097 5.43409
77 2 6.13154 4.94081 1.29975
84 2 2.87631 1.75953 1.60961
87 2 2.0473 3.46418 5.99861
94 2 0.11034 3.2618 0.56772
106 2 5.84684 2.62953 3.90597
2 1 11.5365 2.30375 1.63658
5 1 8.60999 4.6577 0.76565
13 1 12.1505 4.96788 0.63533
17 1 10.9204 4.35506 5.35362
20 1 11.1205 1.21359 4.84936
45 1 7.78085 3.62247 5.08077
47 1 7.21317 2.88521 2.14567
56 2 10.9944 0.37541 1.21537
60 2 9.27601 6.65717 1.75624
70 2 12.5381 5.36367 3.22304
80 2 7.46756 1.0429 0.69448
95 2 13.1328 1.54667 3.87674
104 2 9.48654 2.66204 3.32744
105 2 9.30644 3.49132 6.63527
3 1 1.36588 9.30888 4.95908
8 1 6.56496 7.89359 4.90204
9 1 0.13191 9.88247 1.45217
10 1 3.2181 7.30735 3.73252
39 1 3.87113 9.62902 1.16458
48 1 3.43016 12.6771 1.58909
51 1 6.29133 10.1399 3.17481
55 2 1.97251 9.18272 2.84833
61 2 5.3641 6.85536 6.2799
68 2 5.54477 8.03381 2.78073
76 2 3.66263 10.1188 5.85358
86 2 1.21586 12.2027 0.71373
91 2 1.93749 7.15363 5.44089
103 2 5.48941 12.0709 2.92877
4 1 6.88436 7.42849 0.79275
18 1 9.25575 10.0427 4.74038
21 1 10.617 7.19118 3.58032
23 1 9.80857 10.0043 0.00567
28 1 6.74514 12.2785 0.4329
34 1 10.0905 12.0598 2.39885
40 1 11.6929 7.32817 6.26816
50 1 11.9483 11.3984 6.52548
59 2 7.49526 9.89744 5.48095
62 2 9.19415 6.94843 4.96137
82 2 12.8076 7.44703 0.5665
83 2 12.0233 10.5881 0.07553
85 2 8.4582 10.7019 2.01681
90 2 11.9984 9.08169 4.70899
92 2 10.544 12.3997 4.75144
6 1 5.34035 6.11743 8.19421
14 1 2.33935 3.17623 13.3768
22 1 1.34449 4.87764 10.4222
30 1 5.18237 4.12844 10.4334
36 1 3.17643 2.49655 7.8888
75 2 0.58051 3.10428 9.43759
89 2 3.12962 4.38394 11.8872
96 2 5.96833 1.78007 10.9076
97 2 2.82444 0.32984 9.27854
101 2 5.35317 3.57338 7.88259
1 1 9.10298 1.45285 12.3942
12 1 8.67234 5.78308 7.84159
26 1 7.17208 0.01949 10.6573
37 1 12.502 5.1358 9.09872
41 1 10.0464 0.13665 9.43929
43 1 6.89603 1.71815 8.44965
44 1 9.07886 4.06555 9.99204
65 2 10.2738 3.93947 12.7749
71 2 10.4005 5.94545 9.3087
73 2 13.2595 6.45391 10.9564
78 2 12.3802 4.94867 6.82246
88 2 8.76534 1.7625 9.80074
102 2 12.132 0.85234 7.23761
107 2 7.00478 5.3034 10.0816
11 1 1.73775 7.99812 11.2338
15 1 3.70567 8.84973 7.57525
27 1 5.8843 8.49469 10.2731
35 1 0.34492 13.3405 8.70204
38 1 3.2022 11.5462 11.2227
54 1 3.29556 12.0409 7.54992
57 2 3.80907 7.32351 9.60932
67 2 0.62154 11.0025 7.43472
81 2 3.30967 7.82371 13.2693
93 2 5.47651 10.8059 10.1413
99 2 1.20888 10.1593 11.3026
108 2 4.48608 11.4719 13.3587
19 1 6.87926 10.7786 7.96968
24 1 7.92266 10.2896 11.0869
25 1 12.5003 12.626 12.9379
29 1 13.3593 10.3807 9.50647
31 1 8.60093 7.25981 10.3624
49 1 12.4354 8.47476 12.0524
53 1 10.202 8.98578 9.27666
58 2 9.0043 11.2443 9.03608
63 2 12.1347 8.63779 8.2635
69 2 12.3141 13.0624 10.4573
72 2 10.2012 8.72361 11.4127
74 2 8.17183 12.1745 12.1814
79 2 7.13847 8.20587 12.0157
98 2 7.56529 7.88466 8.42073
100 2 6.77552 13.0153 7.07987
ITEM: TIMESTEP
1000
ITEM: NUMBER OF ATOMS
108
ITEM: BOX BOUNDS pp pp pp
0.0000000000000000e+00 1.3442270278900001e+01
0.0000000000000000e+00 1.3442270278900001e+01
0.0000000000000000e+00 1.3442270278900001e+01
ITEM: ATOMS id type x y z
7 1 1.24534 11.5633 5.5837
16 1 12.4124 1.18892 1.65816
32 1 2.58926 0.949732 4.53523
33 1 3.22331 6.64165 0.986576
42 1 2.59302 3.38123 0.810457
46 1 4.89082 8.6992 11.9183
52 1 1.82516 5.44258 3.89599
64 2 3.61439 4.85979 2.22442
66 2 4.04152 13.0898 6.15042
77 2 7.27227 4.36031 1.5793
84 2 4.24505 1.55604 2.75396
87 2 1.49649 2.9785 4.62118
94 2 1.01851 2.03018 1.03932
106 2 5.76087 3.69472 5.12801
2 1 9.57174 0.734858 3.46389
5 1 8.83641 2.25084 13.5513
13 1 10.8841 5.30064 1.0861
17 1 12.6521 3.64085 4.0298
20 1 12.6252 1.53522 6.2741
45 1 7.20243 5.04523 6.58491
47 1 6.44522 2.51085 2.92523
56 2 11.4072 12.9439 1.00953
60 2 9.50064 7.09975 1.01786
70 2 12.1491 5.60624 3.18073
80 2 7.91202 1.00984 1.8428
95 2 11.217 1.83348 3.94183
104 2 9.23689 5.69554 5.7101
105 2 8.09682 3.16514 7.42766
3 1 2.68169 8.41312 5.20412
8 1 8.26026 7.9996 6.25517
9 1 0.418389 11.5785 1.68774
10 1 5.01502 5.74353 3.7877
39 1 3.97022 9.96121 1.48219
48 1 3.34755 13.6313 1.3673
51 1 5.96559 8.84173 3.22463
55 2 1.43113 7.43746 3.20787
61 2 5.8416 6.98639 5.39293
68 2 5.41453 7.34767 1.92706
76 2 4.25429 9.59145 4.32591
86 2 1.41287 12.4146 3.64732
91 2 2.96033 6.15224 5.95693
103 2 5.725 11.1461 1.66213
4 1 7.57464 7.43956 1.27768
18 1 9.97597 6.386 3.76457
21 1 12.8058 7.87297 2.54855
23 1 8.06961 10.4488 11.4372
28 1 9.15066 10.4174 4.06384
34 1 10.7119 10.8807 1.57967
40 1 1.35798 8.71368 8.63827
50 1 12.0958 9.56511 5.40857
59 2 8.5253 8.48577 3.99088
62 2 7.42267 6.43428 8.54453
82 2 12.5881 7.01994 0.408721
83 2 12.5344 10.2192 13.5067
85 2 8.9666 10.6218 0.348582
90 2 11.8249 9.67949 3.05464
92 2 9.4392 12.3221 4.11315
6 1 2.78113 4.04691 10.7416
14 1 12.1358 2.74685 11.3893
22 1 0.438806 6.03291 12.0702
30 1 5.96922 4.44416 13.2584
36 1 2.98942 0.363262 8.15913
75 2 0.556024 4.51015 10.4714
89 2 2.34457 5.63091 12.643
96 2 3.72925 2.3232 12.2717
97 2 3.42529 13.2304 10.451
101 2 3.17755 2.5221 8.80006
1 1 11.2186 12.6424 12.1231
12 1 10.0258 4.1756 7.20005
26 1 7.47606 12.4059 0.651396
37 1 13.4505 5.19161 8.18914
41 1 6.17094 1.90071 6.48456
43 1 5.45552 1.35523 9.99823
44 1 8.5835 4.38595 9.96009
65 2 11.2272 3.132 0.270334
71 2 10.6127 5.3515 8.87546
73 2 13.2954 7.64584 9.24147
78 2 12.4692 3.68468 6.50314
88 2 9.72807 2.51848 10.8093
102 2 0.681004 13.3578 6.8331
107 2 6.83304 4.59131 11.3213
11 1 0.56357 10.0017 11.8179
15 1 3.19669 4.05062 6.26298
27 1 5.30454 7.52057 7.71321
35 1 2.08963 0.942644 11.8993
38 1 3.41804 11.1917 11.1355
54 1 5.44537 11.072 5.15143
57 2 4.37865 7.28665 9.98746
67 2 1.17925 9.60697 6.16505
81 2 3.24616 9.56904 12.865
93 2 5.46176 10.6374 9.69896
99 2 0.910701 10.8331 9.32863
108 2 2.02969 12.2581 0.159102
19 1 9.71293 11.3228 7.4742
24 1 5.8913 11.7725 8.21813
25 1 8.86591 0.585065 9.82755
29 1 12.8078 12.4619 9.17325
31 1 6.63578 6.61486 10.3563
49 1 10.692 8.50955 13.0446
53 1 11.2479 7.71687 8.63055
58 2 10.5369 12.6607 8.62873
63 2 10.4954 9.28179 6.78721
69 2 12.7718 0.601253 11.1491
72 2 10.9085 9.67627 10.7592
74 2 8.01871 12.869 11.3602
79 2 7.077 8.3987 11.6332
98 2 7.03563 10.2017 6.40935
100 2 6.40972 0.713574 8.27349
ITEM: TIMESTEP
2000
ITEM: NUMBER OF ATOMS
108
ITEM: BOX BOUNDS pp pp pp
0.0000000000000000e+00 1.3442270278900001e+01
0.0000000000000000e+00 1.3442270278900001e+01
0.0000000000000000e+00 1.3442270278900001e+01
ITEM: ATOMS id type x y z
32 1 2.52447 2.00276 5.06799
42 1 13.5284 2.97342 11.966
52 1 1.81523 5.31763 4.35488
64 2 3.30477 4.3089 3.45441
84 2 5.39556 1.69261 0.649749
87 2 0.624605 3.14616 5.81934
94 2 1.34203 2.62981 0.164885
106 2 6.35099 2.46962 4.17416
47 1 7.35348 2.80187 0.85933
10 1 5.31909 4.99021 3.93668
48 1 3.34123 3.72558 1.11748
91 2 0.838948 7.01081 7.3731
41 1 5.84267 2.02457 6.60642
15 1 3.57303 4.4907 8.82379
16 1 12.2534 2.7575 1.62315
77 2 6.37643 5.0936 1.88077
2 1 9.86809 0.163122 2.95989
5 1 9.94844 3.72363 11.5343
13 1 11.208 8.0223 12.9259
17 1 11.5738 3.5603 5.49998
20 1 8.98511 0.287209 6.86446
45 1 8.04641 3.45754 4.54942
70 2 12.1827 4.27357 3.31564
80 2 8.71988 1.12174 0.966471
95 2 10.0586 1.13836 5.15013
104 2 9.45511 5.87778 5.31044
18 1 9.48461 6.83635 3.31528
65 2 11.5404 3.52841 13.1023
78 2 11.1246 4.60146 7.56779
7 1 4.07104 11.6628 5.48549
33 1 3.33933 7.46116 1.94217
66 2 5.12442 13.5262 6.33182
3 1 2.38203 8.19967 5.84805
9 1 1.66489 0.448534 1.56463
39 1 1.45075 9.44276 3.07393
51 1 5.24133 10.2208 1.68286
55 2 1.42538 7.07503 3.48239
61 2 4.79596 7.06885 5.80612
68 2 3.88137 9.00386 0.793031
76 2 3.78018 9.92314 3.97108
86 2 2.90627 0.488731 3.35423
103 2 6.54962 12.4769 2.47183
102 2 2.03218 12.9291 7.52413
54 1 4.95009 0.50632 3.53786
67 2 1.11265 10.2462 5.94173
108 2 2.04669 12.7922 13.3509
56 2 12.1676 0.641904 2.01433
60 2 9.96247 6.68971 0.578775
8 1 5.74954 8.94385 5.08746
4 1 7.51826 7.02678 0.925803
21 1 12.7911 6.28657 2.65527
28 1 8.27107 11.0355 3.76062
34 1 12.8671 12.32 3.77079
50 1 12.4948 8.25738 6.78057
59 2 7.20049 8.73142 2.3416
82 2 13.2608 7.99545 13.5098
83 2 13.507 10.8322 2.46763
85 2 10.1073 10.8829 0.916933
90 2 11.3214 7.84867 3.16031
92 2 10.6792 11.6066 4.31544
26 1 6.87608 -0.100147 0.420737
98 2 7.06557 10.4688 5.73159
6 1 5.23323 4.99452 12.2867
22 1 1.48265 7.2333 12.6243
30 1 7.55553 6.49088 11.1093
36 1 3.46467 0.918707 8.29167
75 2 0.198385 1.09292 10.5804
89 2 3.15348 5.72581 0.384811
96 2 4.25343 2.01245 10.4031
101 2 3.49749 2.90603 7.30645
43 1 5.09947 13.5418 11.3954
35 1 2.28761 1.01756 11.9476
31 1 9.49638 8.82774 9.34374
100 2 7.82717 12.8723 8.52137
105 2 7.44974 3.41108 6.99523
62 2 7.71277 8.94938 8.56248
14 1 11.3096 0.850745 9.671
12 1 9.41904 5.90381 7.23045
37 1 13.5943 4.82114 7.87024
44 1 7.53665 3.62357 9.0526
71 2 8.73337 6.20967 9.26067
88 2 8.88614 2.09022 10.1393
107 2 7.33794 4.3754 12.2513
25 1 8.08989 0.0980949 10.5588
69 2 10.7476 12.6442 11.4935
46 1 4.46045 8.67667 12.2396
40 1 1.9894 7.32888 9.26101
97 2 3.26689 12.2716 10.5233
11 1 1.65863 10.8636 12.0404
27 1 5.62856 7.64925 8.09841
38 1 2.55753 11.0082 8.58831
57 2 5.0357 5.89551 9.66834
81 2 2.60408 8.36112 11.077
93 2 4.45741 10.0081 8.28309
99 2 0.125035 10.6099 9.93256
24 1 6.98047 10.9181 8.04277
23 1 8.46432 10.2996 12.3671
1 1 10.9672 13.0996 0.289299
73 2 1.49054 4.9174 9.69383
19 1 11.474 11.3681 6.62918
29 1 0.197584 13.0961 8.89745
49 1 11.581 9.85717 1.94747
53 1 11.5043 10.9562 10.4143
58 2 11.787 12.7167 8.32395
63 2 11.0457 9.52633 7.56598
72 2 10.0713 9.15745 11.3312
74 2 6.87889 12.3717 11.9254
79 2 6.54777 8.24607 11.8756
ITEM: TIMESTEP
3000
ITEM: NUMBER OF ATOMS
108
ITEM: BOX BOUNDS pp pp pp
0.0000000000000000e+00 1.3442270278900001e+01
0.0000000000000000e+00 1.3442270278900001e+01
0.0000000000000000e+00 1.3442270278900001e+01
ITEM: ATOMS id type x y z
32 1 2.58835 2.39577 3.58122
52 1 0.203424 3.41089 3.12923
64 2 2.33169 4.02071 2.51868
84 2 5.58369 3.11718 0.926081
87 2 0.52041 2.08589 5.29053
106 2 6.16795 3.18773 4.62321
10 1 4.7246 5.50688 4.74936
48 1 3.17604 5.45234 1.04318
77 2 5.38474 5.75816 2.33437
54 1 6.32012 1.9018 2.67446
3 1 1.13076 6.67838 4.07008
61 2 2.68527 5.34651 5.68164
5 1 6.62394 4.73884 1.26597
93 2 5.81798 6.41895 6.05048
29 1 2.02103 0.311165 6.07681
16 1 10.0368 4.04723 0.780647
2 1 9.31636 1.47314 4.28593
45 1 8.57142 4.52962 4.51941
70 2 12.4329 5.85883 3.98207
80 2 8.58993 2.89288 2.95469
95 2 10.4027 2.2362 6.26898
104 2 9.27721 6.46937 5.07407
56 2 12.4908 2.01509 1.87783
60 2 9.52856 6.3722 1.25961
103 2 7.17936 0.169652 2.0898
1 1 11.0074 0.487865 1.30071
86 2 2.61094 13.3989 3.68317
47 1 4.41661 8.73046 1.98217
7 1 4.42603 11.0402 4.16448
33 1 1.31682 8.96659 0.737861
39 1 0.0563937 9.72366 5.99332
51 1 1.57083 12.2799 1.45855
68 2 2.76222 10.6082 0.673874
76 2 2.88082 8.34778 3.67551
67 2 0.746699 7.95969 6.04462
8 1 2.93264 7.74485 6.22957
59 2 6.45651 10.5467 3.77076
102 2 4.08309 10.8123 6.30603
79 2 5.99099 8.72418 0.161324
24 1 5.99042 11.1982 6.71962
21 1 11.0421 7.18752 2.1506
55 2 12.4833 8.74011 1.20322
83 2 13.1746 11.9431 2.54017
18 1 7.35878 8.34816 5.81052
4 1 8.09954 8.11352 0.678238
28 1 8.06273 11.4685 2.7171
34 1 12.7109 13.0548 4.36568
85 2 9.44886 9.91514 1.38456
90 2 11.4477 9.50956 4.75494
92 2 10.4383 12.8825 3.70613
98 2 8.27747 9.78961 6.69542
19 1 10.5672 10.9196 6.3475
49 1 11.7704 10.2257 2.56408
50 1 11.3544 7.38981 5.4195
58 2 13.3407 12.2136 6.27036
94 2 1.76892 3.22048 12.5336
41 1 5.78722 2.0496 6.87674
9 1 0.443026 1.61787 13.4055
42 1 1.00286 4.68759 10.9564
15 1 4.72895 4.0246 9.70838
96 2 5.94409 2.00277 11.199
101 2 3.49082 1.01418 7.1176
43 1 4.23765 2.39473 12.574
35 1 1.88308 1.39559 9.71448
37 1 1.84014 3.62641 6.89873
57 2 4.31961 5.80773 11.0097
73 2 2.12543 3.53006 9.22818
105 2 6.02317 3.81154 8.27618
27 1 5.47196 6.69183 8.15133
66 2 7.07544 0.396749 7.65739
17 1 12.4353 1.96311 7.22628
26 1 7.57144 1.06256 12.6668
75 2 13.4331 0.877387 9.22973
20 1 9.2802 0.694455 7.75878
65 2 11.1655 4.31001 12.4343
78 2 9.80761 2.86183 9.66799
14 1 10.9665 2.73218 11.2741
12 1 10.0611 4.08449 7.56633
44 1 7.78941 4.18823 10.4678
71 2 9.1917 6.11554 9.13263
88 2 10.0579 1.25411 12.8131
107 2 7.72023 5.30557 12.1719
91 2 12.456 4.50769 7.90886
40 1 13.1789 6.587 8.06884
13 1 10.162 6.36865 11.4094
89 2 2.47526 7.26639 13.3476
82 2 0.535935 6.87957 9.94463
6 1 2.71764 7.28421 10.6872
36 1 6.17667 13.0677 9.56296
30 1 6.06818 6.94576 11.8626
108 2 1.11686 13.2599 12.9011
46 1 6.45904 10.3871 11.4197
97 2 4.78738 11.4691 10.2005
11 1 2.12673 11.1678 12.039
38 1 2.99737 10.3952 8.75734
81 2 3.63261 7.95605 8.69306
99 2 1.35877 10.4011 10.3369
25 1 9.49754 12.2838 11.0707
22 1 12.8045 8.96709 9.66645
31 1 9.25831 8.20585 9.04544
100 2 10.6809 12.5725 8.11647
62 2 7.10715 8.70932 10.132
69 2 11.6487 11.7059 11.3622
23 1 11.3572 10.2513 13.043
53 1 12.2479 12.3612 9.29252
63 2 11.7788 8.83327 7.98767
72 2 10.2279 8.37141 11.2651
74 2 7.76607 12.5772 11.2774
ITEM: TIMESTEP
4000
ITEM: NUMBER OF ATOMS
108
ITEM: BOX BOUNDS pp pp pp
0.0000000000000000e+00 1.3442270278900001e+01
0.0000000000000000e+00 1.3442270278900001e+01
0.0000000000000000e+00 1.3442270278900001e+01
ITEM: ATOMS id type x y z
32 1 3.4938 3.30906 0.987652
52 1 13.3971 4.96427 1.61707
64 2 2.64575 1.23638 2.63785
84 2 4.52973 1.6584 13.4537
87 2 13.088 2.64408 6.18997
106 2 6.30344 1.95022 5.97535
10 1 4.15777 5.45817 4.22418
48 1 2.08215 5.74266 12.2399
77 2 4.67111 4.82145 1.96193
54 1 8.6827 11.8947 2.85683
3 1 3.73025 7.18444 1.35664
61 2 3.306 4.28001 6.34691
5 1 7.02863 5.18898 1.09212
93 2 6.10834 6.53988 5.58906
29 1 3.52377 10.026 4.94836
16 1 9.72055 4.25176 2.67058
2 1 11.197 2.04078 5.32502
45 1 7.70566 2.22343 4.62256
70 2 0.734656 5.90502 3.29329
80 2 7.83594 3.43386 1.86953
95 2 9.3575 3.76074 5.15225
104 2 11.2142 6.94902 4.09036
56 2 11.7809 3.32686 2.19887
60 2 11.6792 8.01524 13.2227
103 2 6.65896 12.2575 1.45811
1 1 11.2183 1.18055 2.21048
86 2 4.15003 11.7542 4.0663
47 1 6.18901 11.2717 13.2247
7 1 6.39209 8.26878 4.14887
33 1 1.41746 9.5477 0.522064
39 1 0.521264 8.71678 4.49633
51 1 4.16247 13.5402 1.61574
68 2 3.71919 11.4636 0.430341
76 2 4.36061 8.48419 3.11762
67 2 0.889055 7.67017 6.33157
8 1 2.91706 6.17207 7.89558
59 2 7.93407 10.1343 4.02391
102 2 4.70948 10.0218 6.74
79 2 6.78831 7.22239 1.03136
24 1 9.1513 11.0053 6.32071
21 1 12.1731 8.34454 1.85881
55 2 0.421091 9.64787 2.35791
83 2 12.6184 13.1134 2.56677
18 1 9.98981 8.43315 4.65512
4 1 9.17889 8.75946 0.426427
28 1 5.78202 10.9469 3.00415
34 1 2.05005 12.8657 4.64074
85 2 10.557 10.0642 1.78751
90 2 11.3048 10.5854 5.34427
92 2 9.22155 0.836708 3.86445
98 2 9.39684 8.29108 6.8359
19 1 11.8289 11.441 7.50949
49 1 12.7345 11.4141 3.72338
50 1 12.8083 5.85182 5.57206
58 2 1.24664 10.9199 5.22054
94 2 1.37125 3.97349 12.9679
41 1 5.41162 12.3954 6.42421
9 1 0.327953 2.47426 11.6599
42 1 11.7676 4.8574 9.55958
15 1 4.66573 2.47556 7.31837
96 2 4.18239 2.24548 9.81635
101 2 3.45301 13.3904 6.89354
43 1 4.62419 3.88603 11.3073
35 1 2.69088 0.311297 8.91556
37 1 1.5235 3.11821 5.8663
57 2 4.15422 5.76978 10.9238
73 2 12.4221 2.48719 10.1364
105 2 7.56243 4.83553 8.35055
27 1 6.50784 7.928 7.75827
66 2 7.5013 12.1983 7.06719
17 1 12.642 1.53042 8.00788
26 1 7.2974 1.79206 0.722552
75 2 0.629092 12.914 8.40624
20 1 8.76094 1.4171 7.88335
65 2 10.6498 4.45267 11.7211
78 2 8.29535 1.81583 10.1026
14 1 10.1095 1.76928 11.4415
12 1 8.57046 5.17755 6.65438
44 1 8.41768 4.26764 10.5581
71 2 10.0228 7.98523 10.6205
88 2 9.43968 0.61751 0.437113
107 2 6.98317 4.16059 12.3706
91 2 11.3324 5.40619 7.57672
40 1 11.0494 7.81401 8.24776
13 1 11.2834 6.47537 11.6668
89 2 2.11895 7.44431 13.3217
82 2 0.109735 6.45529 10.4316
6 1 0.769187 8.65329 10.5551
36 1 6.3043 1.29917 10.817
30 1 5.65185 7.00251 11.0294
108 2 0.984907 0.30465 12.2207
46 1 4.24711 10.396 8.82647
97 2 3.47939 12.2269 9.99578
11 1 3.54485 12.7162 12.0666
38 1 0.957961 9.74454 7.60178
81 2 2.39294 8.76676 9.02966
99 2 0.254453 10.4089 12.0586
25 1 9.27608 12.5105 12.3521
22 1 11.4368 10.1547 12.0065
31 1 7.77208 9.77529 10.7169
100 2 10.695 0.223428 7.79504
62 2 6.22313 8.41717 9.85454
69 2 11.0538 12.6657 11.3543
23 1 0.485634 12.6528 0.552529
53 1 13.3294 12.5349 10.4863
63 2 12.2022 9.90562 8.80261
72 2 8.76667 10.1893 12.4936
74 2 6.56376 12.4801 11.4783
ITEM: TIMESTEP
5000
ITEM: NUMBER OF ATOMS
108
ITEM: BOX BOUNDS pp pp pp
0.0000000000000000e+00 1.3442270278900001e+01
0.0000000000000000e+00 1.3442270278900001e+01
0.0000000000000000e+00 1.3442270278900001e+01
ITEM: ATOMS id type x y z
32 1 4.06687 3.45377 2.4518
64 2 2.91226 1.51408 2.63461
84 2 5.90364 1.5933 0.269259
106 2 7.48636 2.40266 6.03203
10 1 5.38061 6.61602 3.57974
77 2 5.52824 5.48511 1.22687
61 2 3.7945 4.57418 5.2849
93 2 7.37926 6.15147 4.11895
70 2 1.24016 4.54033 2.52505
51 1 2.27894 11.9567 2.14028
37 1 1.58695 0.946976 4.85759
52 1 13.1821 5.70888 1.19829
87 2 0.617594 2.57704 5.59166
5 1 7.77364 3.0483 -0.253627
16 1 9.12398 4.11463 3.84313
2 1 12.9494 3.83311 3.74529
45 1 8.04874 0.88551 3.80387
80 2 8.901 2.55243 2.50281
95 2 10.6389 3.98136 5.67124
56 2 11.0191 4.61802 2.1298
1 1 10.9422 2.53324 1.41948
92 2 9.64879 13.2736 4.68378
50 1 11.5571 6.08689 6.53213
26 1 5.59194 13.3719 1.19328
12 1 9.09821 2.4146 7.49064
88 2 9.49596 1.75808 12.9895
3 1 5.40371 7.08778 12.3253
29 1 3.02668 9.52358 5.07637
103 2 6.14996 0.192209 3.74423
86 2 3.03718 11.6189 3.87675
7 1 8.45939 7.56598 3.00915
33 1 1.93915 11.9142 11.3905
39 1 2.16268 5.27813 4.24452
68 2 4.00719 11.5979 0.317584
76 2 3.46854 7.61943 3.38677
67 2 0.434932 6.41486 5.96348
55 2 0.106265 8.54807 1.84043
28 1 5.93777 10.5021 1.57156
34 1 4.5733 12.8307 4.81301
58 2 2.02379 9.89822 6.94052
41 1 6.88661 9.8632 6.05461
23 1 1.30325 1.76175 0.93313
54 1 9.30154 11.2246 2.98613
104 2 10.9677 7.71255 5.31295
59 2 7.7704 9.73429 3.98283
79 2 6.11054 9.17563 -0.00408557
24 1 9.35453 13.3181 6.92572
21 1 12.5255 8.18733 3.71702
83 2 12.8705 1.72833 2.54827
18 1 10.279 9.05185 6.80923
4 1 8.29457 8.76124 12.9386
85 2 11.4798 11.0516 2.70718
90 2 0.0206517 12.6176 5.47405
49 1 12.0706 -0.230817 3.76001
48 1 2.13923 7.84454 1.19275
8 1 2.35716 5.12034 7.44633
94 2 2.20371 2.57548 12.2528
9 1 0.918896 1.61683 10.9934
15 1 6.00677 4.03227 5.76791
96 2 4.56966 13.4323 9.15964
43 1 3.18821 4.89693 10.5776
35 1 3.19519 1.17123 8.31134
57 2 2.73532 3.28014 8.70439
82 2 12.1842 5.8099 12.6021
36 1 6.77187 -0.180321 9.17532
108 2 0.579065 13.477 12.6643
42 1 11.9064 4.98044 10.2203
73 2 12.6109 2.79535 10.0703
105 2 6.96409 5.255 7.80684
17 1 12.9099 2.03127 7.58738
20 1 8.62965 10.8354 9.68631
65 2 8.62079 6.50764 12.088
78 2 7.90115 2.4142 9.74556
14 1 9.86915 1.63122 10.3682
44 1 6.29018 4.22315 9.48712
107 2 5.22731 4.0992 11.2715
91 2 11.2187 6.75778 8.93362
13 1 10.2379 6.05404 13.446
100 2 10.9296 1.39183 7.71599
47 1 4.90052 10.5512 12.0077
102 2 4.92854 8.60614 6.22696
101 2 3.38532 0.204714 6.33327
27 1 7.30291 6.66635 6.34332
75 2 1.26012 13.2459 9.58982
89 2 3.0649 7.27732 12.6681
6 1 1.64956 8.73122 11.1254
30 1 4.33341 8.44424 8.47075
46 1 3.51359 11.5862 8.37672
97 2 3.23361 10.3768 10.5244
11 1 4.72005 2.46482 12.3777
38 1 0.779489 8.30779 7.88353
81 2 2.2645 7.01877 9.0394
99 2 -0.0643756 9.99986 11.2665
62 2 5.59944 7.86862 9.95462
74 2 7.10845 12.1715 11.0406
60 2 9.67886 8.4192 1.21446
98 2 8.10917 8.59174 7.14993
19 1 13.8856 11.3808 6.72442
66 2 8.03803 12.0863 7.62723
71 2 9.40359 9.28177 10.8072
40 1 11.4067 8.62949 9.97644
25 1 8.68113 12.9076 12.9462
22 1 12.265 10.1098 0.802484
31 1 7.7895 6.88355 9.70463
69 2 10.3793 12.6048 10.7737
53 1 12.5425 12.539 10.4985
63 2 12.2754 9.65033 7.66208
72 2 7.52039 11.9014 1.45262
ITEM: TIMESTEP
6000
ITEM: NUMBER OF ATOMS
108
ITEM: BOX BOUNDS pp pp pp
0.0000000000000000e+00 1.3442270278900001e+01
0.0000000000000000e+00 1.3442270278900001e+01
0.0000000000000000e+00 1.3442270278900001e+01
ITEM: ATOMS id type x y z
32 1 4.28034 3.29916 0.3795
64 2 2.22073 0.864967 3.38319
84 2 6.44817 1.52496 12.8071
10 1 6.22491 7.2901 0.989039
77 2 5.53975 2.52114 2.27426
61 2 4.02554 4.40348 6.24296
70 2 2.12644 4.50469 3.1725
37 1 1.06394 1.66855 5.46283
87 2 0.476947 3.69276 6.36234
103 2 5.53693 12.7689 3.71079
39 1 0.314531 8.87143 3.40935
67 2 1.53521 6.98618 5.2195
23 1 1.07744 2.89065 2.08027
15 1 6.16226 5.98108 6.51713
101 2 3.07066 0.837197 7.23778
106 2 7.16024 2.3518 5.69581
93 2 7.52878 6.63744 2.93615
52 1 12.6668 5.87609 13.1152
16 1 8.97532 5.68424 3.98782
2 1 13.1715 5.69897 5.08655
45 1 9.64726 2.14088 4.91316
80 2 9.0049 3.25399 2.61171
95 2 10.1039 3.64773 6.64076
56 2 11.2148 6.05266 3.53157
1 1 10.8054 3.42153 0.687187
50 1 9.95907 5.90037 7.85719
83 2 11.9143 1.3601 1.64643
13 1 11.5893 5.12379 10.5216
27 1 7.23436 8.53252 4.06166
51 1 1.3536 12.9158 2.28366
26 1 4.95081 13.2722 12.4887
29 1 4.48406 10.0817 1.98129
86 2 1.17614 10.7253 3.99815
68 2 4.33949 12.0845 0.784336
76 2 4.03763 8.21043 2.09852
55 2 13.2572 7.65291 1.39384
28 1 8.22049 10.2505 0.590511
34 1 4.78978 0.593207 1.95827
90 2 0.207787 12.9686 6.3662
48 1 2.14158 6.90367 1.64372
102 2 5.55025 8.14163 6.17717
92 2 9.22108 -0.0317672 4.89747
7 1 10.702 8.15641 2.5747
41 1 6.05503 10.6261 5.99063
54 1 7.492 12.2523 3.52746
104 2 9.01734 7.19679 6.03677
59 2 6.82934 9.90883 2.43076
21 1 13.2339 11.1137 5.96554
85 2 11.5377 9.90377 3.77124
49 1 10.5847 0.0189038 2.85252
60 2 10.5615 8.79476 0.269099
22 1 12.5807 9.30436 13.4751
72 2 8.93121 12.7412 1.42831
8 1 3.21916 5.59814 4.45118
94 2 2.69276 2.23204 13.3791
9 1 2.23614 0.841559 10.0752
96 2 4.34047 0.0503813 10.4835
43 1 3.89232 5.265 10.5867
35 1 2.91951 3.25247 7.72364
57 2 1.95449 3.19912 9.81918
108 2 0.0577641 11.5242 0.171493
44 1 7.53629 4.75581 10.7619
107 2 5.01868 3.59685 11.2258
11 1 5.82313 1.97116 10.4158
5 1 7.36266 3.0996 1.2695
12 1 8.08226 2.84722 7.50069
88 2 9.47211 5.16043 12.9308
82 2 12.9547 3.9999 13.1081
42 1 1.65182 3.51886 12.2659
73 2 11.9774 3.17621 9.66198
105 2 7.01177 5.85172 8.51
17 1 12.3601 3.55202 7.63363
65 2 10.0233 6.71778 10.2919
78 2 8.28726 2.94009 9.85027
14 1 10.4545 1.58848 10.3094
100 2 10.3121 13.3685 8.58971
3 1 4.99018 9.41291 11.2654
33 1 1.72887 11.2598 12.0003
58 2 3.81643 10.7907 6.78205
79 2 6.82391 7.90037 12.6157
36 1 5.35175 1.73091 4.53935
47 1 4.74571 11.818 8.48017
75 2 0.753641 12.6236 10.3249
89 2 2.58317 5.68496 12.9094
6 1 1.71154 7.32038 11.19
30 1 4.03352 8.35382 7.81363
46 1 2.76936 12.5533 5.53897
97 2 2.69833 9.10695 11.9722
38 1 0.817512 7.26126 7.35027
81 2 2.57827 7.08328 9.06831
62 2 5.58285 9.4986 9.29703
19 1 12.5052 12.8095 8.56562
24 1 8.51529 12.5413 6.81237
18 1 10.2008 8.99922 5.99691
4 1 8.94014 7.27883 12.2373
20 1 8.48844 11.0138 9.50726
91 2 12.2523 6.10735 7.84627
99 2 12.978 7.54904 11.381
74 2 7.53558 11.0805 11.9289
98 2 7.81496 10.5324 5.72203
66 2 6.86007 12.4491 8.37286
71 2 9.38159 9.11598 8.52092
40 1 11.3996 8.20868 9.35493
25 1 8.49588 13.1336 12.4228
31 1 7.67779 8.12031 8.33429
69 2 10.6984 0.503386 12.12
53 1 12.3207 0.283289 13.3154
63 2 12.3732 9.54577 7.0649
ITEM: TIMESTEP
7000
ITEM: NUMBER OF ATOMS
108
ITEM: BOX BOUNDS pp pp pp
0.0000000000000000e+00 1.3442270278900001e+01
0.0000000000000000e+00 1.3442270278900001e+01
0.0000000000000000e+00 1.3442270278900001e+01
ITEM: ATOMS id type x y z
64 2 2.83746 1.14902 4.14773
77 2 5.37255 3.37538 2.76677
61 2 3.30096 4.91735 5.73386
70 2 0.475139 4.80905 2.77325
37 1 0.769393 1.5731 4.99167
87 2 12.9673 2.96986 6.36335
23 1 1.33081 2.88833 1.79773
15 1 4.5402 6.65498 6.7684
34 1 4.6506 1.6288 1.94127
48 1 2.14596 7.54331 0.869371
8 1 1.64758 5.32995 4.3738
36 1 5.25148 3.60353 5.03942
106 2 5.90615 2.40709 7.5761
93 2 7.30233 6.97684 1.50284
52 1 11.6903 6.78021 0.17423
16 1 8.76427 4.0548 2.21944
2 1 11.8341 4.0548 3.08426
45 1 9.21381 2.18279 5.61076
80 2 9.89023 3.10441 3.86775
95 2 9.5783 3.39006 7.73301
56 2 10.8755 6.30236 4.90203
1 1 8.3327 1.85792 13.1014
83 2 12.8807 1.66344 3.15297
5 1 7.53947 12.9913 3.01014
103 2 5.88768 11.9187 4.49087
39 1 2.97257 8.35627 4.48049
67 2 0.665841 6.98805 5.30601
27 1 6.33105 9.90583 4.86874
51 1 2.0425 0.244448 12.6188
29 1 3.70693 10.726 0.921871
86 2 2.24803 10.1263 2.94614
68 2 3.49797 13.3318 0.58193
76 2 3.42809 6.78779 2.70399
90 2 0.18666 12.6216 5.4311
102 2 7.28125 5.10697 5.22692
41 1 6.35443 12.913 6.81558
108 2 0.057949 12.2634 13.246
46 1 3.76041 12.3528 4.83933
10 1 5.86256 6.7262 3.08422
55 2 13.3107 8.35055 0.574658
28 1 7.75338 8.98286 0.126711
92 2 8.96755 0.0817258 5.30808
7 1 12.7795 7.87115 4.09435
54 1 10.2349 9.58891 2.13101
104 2 9.77925 6.32435 7.87876
59 2 5.89747 10.6518 0.161604
21 1 0.0949391 11.6016 3.54572
85 2 11.7494 10.0395 3.83815
49 1 11.5319 1.13834 1.81432
60 2 9.96279 9.55769 13.463
22 1 13.0119 10.4153 0.175301
72 2 10.3817 12.269 2.12137
18 1 10.2021 9.30389 5.50679
98 2 8.53885 9.33635 4.249
32 1 5.86303 4.35148 0.860879
84 2 7.45526 0.841846 1.14321
101 2 3.67446 12.7325 7.09689
94 2 1.31286 2.41648 13.2281
9 1 4.16663 1.73793 8.4626
96 2 5.64254 1.37539 10.6732
43 1 2.31056 4.24158 11.8911
35 1 12.1558 1.94595 7.90437
57 2 2.90576 3.33636 9.22081
107 2 4.38098 4.75776 12.4979
11 1 7.53775 1.73785 9.0977
42 1 12.3542 4.00747 12.867
89 2 0.872055 5.63313 12.4805
50 1 1.42052 4.32759 7.67759
13 1 11.7703 5.31544 6.62211
44 1 5.31729 3.84335 10.6286
12 1 7.12094 4.58935 7.83448
88 2 8.07271 4.05644 0.0700524
82 2 10.9049 4.85823 1.19511
73 2 12.3664 2.52656 10.2641
105 2 6.07499 6.39923 7.9962
17 1 11.2903 12.7103 4.74229
65 2 11.0803 6.02647 11.4204
78 2 7.62179 4.08092 10.249
14 1 10.0331 4.58628 9.97878
91 2 13.33 6.02774 8.49486
25 1 10.1402 11.8598 13.1764
69 2 11.1429 1.07279 13.1834
53 1 12.8521 1.23674 11.8456
26 1 6.19934 13.0904 12.8245
3 1 5.59033 9.68344 11.7019
33 1 0.975143 9.8963 10.9919
58 2 4.93417 8.38159 5.27413
47 1 6.61743 12.174 10.1679
75 2 1.3786 11.5357 9.77218
6 1 13.3699 6.74884 10.3943
30 1 3.19111 10.8411 8.60204
97 2 2.91693 9.50188 12.3367
38 1 0.273698 8.11518 7.26773
81 2 2.4421 9.1623 7.26176
62 2 5.67415 10.5275 9.49764
100 2 11.768 12.7206 8.23517
79 2 6.72408 8.01309 11.7456
19 1 0.0491784 11.9148 7.53252
24 1 9.97805 11.5281 7.92539
4 1 7.69208 5.98502 12.0328
20 1 6.94819 8.61232 9.16325
99 2 12.7459 8.87011 10.2881
74 2 8.14125 12.2294 11.9716
66 2 7.6488 13.1773 8.44437
71 2 8.82651 9.67232 8.07668
40 1 10.171 8.11202 8.6597
31 1 8.89249 5.95606 5.83599
63 2 11.8501 9.59907 6.87729
ITEM: TIMESTEP
8000
ITEM: NUMBER OF ATOMS
108
ITEM: BOX BOUNDS pp pp pp
0.0000000000000000e+00 1.3442270278900001e+01
0.0000000000000000e+00 1.3442270278900001e+01
0.0000000000000000e+00 1.3442270278900001e+01
ITEM: ATOMS id type x y z
64 2 2.50624 1.26435 3.79029
77 2 5.044 3.09928 2.63009
61 2 4.57018 4.68902 7.29828
70 2 12.7846 3.01947 2.87673
37 1 1.92767 13.0878 5.67706
23 1 1.09523 1.44453 2.20656
15 1 3.77541 7.04289 6.59075
34 1 4.33728 1.02426 1.99462
8 1 3.01063 3.30255 4.86594
36 1 6.20966 3.11428 4.43313
76 2 3.12111 6.33514 1.7479
32 1 4.67085 4.97228 1.36831
87 2 1.56245 4.22645 5.86854
16 1 7.27937 3.187 1.26895
2 1 10.096 3.37303 3.38121
45 1 8.76347 1.93924 7.16337
80 2 8.57192 2.12107 2.70616
56 2 11.718 6.05436 5.32175
83 2 0.555183 12.2318 2.91656
102 2 7.59887 4.80087 4.84194
92 2 8.97378 11.9428 5.02982
49 1 9.01118 0.210469 0.328041
84 2 5.98349 12.617 2.9401
13 1 0.522354 6.0186 6.06754
88 2 7.66962 2.05873 12.8277
82 2 8.95238 5.4664 11.8762
31 1 9.9368 5.97707 6.50986
48 1 0.879737 7.52162 -0.133962
103 2 5.46853 11.5864 6.91992
39 1 3.59663 8.26023 3.08258
67 2 1.55386 7.9333 5.01019
27 1 7.1455 9.10542 6.28617
29 1 2.58078 11.4433 1.41384
86 2 3.22229 10.4519 3.35284
68 2 2.89975 0.322055 0.411604
90 2 12.8826 13.3002 5.87143
46 1 5.24941 11.4068 4.28586
10 1 7.72008 6.76022 3.86766
59 2 4.45053 10.6982 0.122336
21 1 0.889899 10.0736 4.66784
58 2 5.91768 8.54574 4.5518
93 2 6.99645 5.42233 1.32371
52 1 9.74477 7.61754 12.6002
5 1 7.95043 -0.156971 3.73576
55 2 13.2464 6.37111 1.15347
28 1 6.35506 10.3089 0.246761
7 1 12.6881 7.06053 3.36147
54 1 9.16066 10.4852 2.28216
85 2 12.0717 9.80368 3.68985
60 2 9.85665 7.79679 1.53542
22 1 12.684 10.9156 1.89456
72 2 10.0165 12.4734 2.26588
18 1 11.0921 9.30448 5.69392
98 2 9.11679 8.56808 5.05711
17 1 11.5945 12.5328 4.18294
106 2 6.67733 1.59629 6.01497
51 1 2.52713 1.39643 9.53852
94 2 13.0025 2.98386 12.8034
9 1 2.63675 4.41222 8.1147
96 2 5.92322 1.32199 9.74026
43 1 2.83902 4.9349 11.9495
57 2 2.2906 3.29237 10.3439
107 2 5.05013 4.56523 12.4283
89 2 1.76517 6.59851 11.4425
50 1 0.427421 2.96442 10.6177
44 1 5.92214 2.43107 11.4966
105 2 5.40742 7.83488 8.30532
95 2 10.8853 2.64075 5.96101
1 1 9.55602 3.18923 11.6021
104 2 8.41154 6.27155 8.25928
35 1 12.9368 2.67599 5.27464
11 1 11.1671 2.37226 9.00889
42 1 12.8378 4.24305 1.15993
12 1 6.61094 5.63342 8.04498
73 2 12.1557 5.33983 9.8137
65 2 11.2874 8.77536 11.3436
78 2 9.23507 2.76471 9.41774
14 1 9.97737 5.77257 9.90787
91 2 1.71108 6.54018 8.07548
69 2 10.339 0.998735 11.5494
53 1 12.9032 0.106206 12.2944
4 1 6.69059 6.46976 12.6021
41 1 5.51779 0.334703 7.33069
108 2 12.2331 11.6675 12.8823
101 2 2.85915 0.798346 7.50424
26 1 4.05481 12.0064 12.0466
3 1 3.29491 8.55155 10.649
33 1 0.925978 10.742 12.052
75 2 1.02232 13.0994 10.8472
6 1 0.0432605 6.7616 10.1176
30 1 3.72398 10.8744 8.03156
97 2 1.33349 9.644 0.179661
38 1 0.611981 9.41861 7.96115
81 2 1.82596 11.101 6.75505
62 2 4.44886 10.4671 10.3016
25 1 10.3965 10.5358 12.353
47 1 8.86469 0.852173 10.0698
100 2 13.2911 1.75036 8.80843
79 2 7.36431 8.70449 12.09
19 1 -0.184273 13.1127 8.24488